 BEGIN_INFO
   #
   # This is a XCRYSDEN-Structure-File
   # aimed for Visualization of Fermi Surface
   #
   # Case: Tight-binding calculation
   #
   # Launch as: xcrysden --xsf HICOLM.XSF
   #
 END_INFO
 # estrutura final
CRYSTAL
PRIMVEC
      14.75978798       0.00000000       0.00000000
       0.00000000      14.75978798       0.00000000
       0.00000000       0.00000000      14.75978798
PRIMCOORD
  300    1
    8   -3.09101420   -3.00515838   -1.17274808     52.13965071   -5.17081078  -18.21390424      1.24240938    4.02733405    7.20450766
    1   -2.47793849   -2.28963519   -1.43457293    -24.97342212    8.67778972    9.47777520      3.05496461  -15.57535486  -30.46962009
    1   -2.59140242   -3.73263161   -1.58314104    -16.70403811  -11.34959857    3.63929387     -9.01950300  -12.28565176    2.61796073
    8    3.77488431    0.42412706    2.10817686     -7.25105052   -1.05603220   23.03004579      6.75916392    2.30792294   -5.16527625
    1    4.40966586    0.17219763    2.78109696     -2.71641520  -10.43954202   22.47586479    -12.97535621  -24.77940745   31.86348574
    1    4.39290159    0.55351302    1.42145630      7.12901738   10.87895908  -42.20152317    -33.30126223   14.65155553   -5.73218385
    8   -6.36574493    4.48690082    6.07596242     24.74703483   16.44011904   15.17514544     -2.51683464   -2.71791173   -4.50099523
    1   -6.38943797    5.44816473    5.89649647     -4.36879571   -6.58797508    2.82282205      1.03420287    4.62816148    1.25730391
    1   -7.06475880    4.16212382    5.55093558    -23.15476651  -10.19038911  -16.75335949     17.00128607  -14.47684340   -9.18716345
    8    0.79072027    4.10755441   -4.27941698      3.23501047   26.56543734  -41.67464404      5.88646442   -3.62759405    2.05601174
    1    0.73575736    4.57709718   -5.17199405     -5.48679720  -29.68788512   32.68975891     -9.35771237    4.19548347  -12.41108907
    1    1.43719119    4.64519083   -3.82099846      2.03994719    3.74835492    9.15097648    -16.33047496   -4.11243947   -8.72669200
    8   -2.33979800   -5.44420860   -2.63265928     -7.57546643   -0.15176356    3.49800308      0.28919678    0.82532779    2.10759987
    1   -2.35811604   -5.48053870   -3.61134251     -0.35316176    7.43780480   -0.83260041      9.26786759    3.16045544  -22.86150346
    1   -1.62442608   -6.05716634   -2.44284244      9.81630901   -7.94256296    3.95306823      3.28619653    1.87094711   25.74528525
    8    6.56987635   -1.27549614   -1.56137325      0.49149052   68.76955565   38.29038175     -2.46286784   -4.44486471    2.33758356
    1    5.90663679   -1.68403161   -2.06320457    -11.57198643  -35.90953714  -23.70038142    -24.05250226    5.22709473  -18.71243788
    1    7.34011928   -1.81017121   -1.53918420     12.46960556  -35.58785871  -16.80991640      5.15732570   -4.26461823   10.06316094
    8    3.06241986    1.68901636   -6.24982244     55.68331686   30.61878294  -29.43658714     -3.36977825    5.62005565   -0.24910924
    1    3.74048533    1.37412578   -5.64273634    -15.95583748  -20.81931995   19.33721588    -13.69163269  -11.40989570   34.26232853
    1    3.68946632    2.22054380   -6.81578779    -43.91281605  -14.79900870    9.57354733      3.18684619    2.77113788  -14.90683204
    8    1.16830515    3.34704024    5.28837178      1.38122675  -29.49416902   -9.89910951     -2.52588211    3.83979856   -1.36410233
    1    0.35736599    3.22318023    4.80168281    -25.72075163   24.71407074   -0.84152060     26.09917919    5.69721713   18.71165477
    1    1.51564499    2.47190769    5.09803417     23.70298643    6.43925289   11.26890507      7.90113168   10.69502628  -26.96716497
    8    5.86788502    2.05748405   -2.28982627     -3.65120043   -5.00374176  -14.48180273      1.96869038    0.33728060    2.47658667
    1    6.11655839    2.93265822   -2.68087720     -5.00738464   -5.99837938   13.26242846     27.35160184   -2.99141358    5.82534903
    1    5.56842323    2.23097927   -1.38668614      4.75294504   11.93569874    1.71799784     10.95074686  -15.11522625    6.68450377
    8    6.53188657   -4.91814311    5.38536767     16.24300043   30.97777696   24.39360159      2.80233247   -2.83929189   -1.20962398
    1    5.92684075   -5.37258249    5.97582984    -26.74418965  -37.18881937  -12.32911079    -28.27733395  -34.60107474   -9.48780396
    1    6.78260887   -4.25833135    6.05348178     21.61106154   15.67480347  -17.36790773     14.33129621   -7.78285677  -10.22757167
    8    4.03693346   -5.65098982   -0.81580390    -12.64582367  -21.44367495   76.60873593      0.04090215    0.72582303    4.29027374
    1    4.02469369   -6.58807248   -0.51493769      5.96783070    1.48345799  -36.98588194     -2.69284098   21.99573142   20.65386541
    1    3.86216877   -5.30953281    0.10099305      9.98063648   27.17672819  -31.43862852      3.84129354    3.38736055   -0.32380861
    8   -3.60060069    1.51575009    0.74442095     18.67338260   -9.83482903   30.84584149      0.43865609    3.13350365   -6.27605197
    1   -3.83296883    1.30767115    1.67871560      8.42644355    8.66761401  -19.92852187    -37.53225988    3.93528074   -7.81962600
    1   -4.45024958    1.54052324    0.32587553    -19.33167327    8.55995483   -9.82847160      1.12309851    9.44129202   11.35382242
    8    0.44443235    4.17723064   -0.68315326     50.97550295    1.38952129    7.05575198     -3.24026220    2.89468727   -1.11181515
    1   -0.47600786    4.32225111   -0.69950612    -36.35139032   -3.32087998    1.49945270      7.31849760   31.70976667  -13.63289733
    1    0.54818162    3.30499854   -0.23798879    -16.64088745    3.21414425   -7.75367681     21.45819120  -28.55588181    0.46377253
    8   -6.66060072   -0.03215830   -4.57095483    -51.04533971   -3.24036280  -36.19161544     -1.29097446    0.54221281   -5.24414220
    1   -6.14325876    0.55934911   -4.00064164    -21.10861996   14.11447407    6.53780165     -3.27428547   10.40471480   -2.55004601
    1    7.16727626    0.37420570   -4.71744755     69.98554900  -12.67821468   22.18928829     21.80302410    9.69430736   11.72868812
    8    5.12495157   -1.59239368   -7.33650167     47.15352585   23.92725810  -41.78511500      1.00927563   -4.90237807   -2.50923396
    1    4.52441972   -1.91520387   -6.68038058    -20.62180066    7.27281525   32.96665786      8.60635491   43.62850613   11.77745251
    1    5.42671346   -0.67820938   -7.06029689    -23.07446123  -21.91807655    1.36833297    -34.04674775   -8.44092131   22.57611025
    8    1.27844996   -6.90107607   -4.95066268     12.34744502   -2.19385896    9.99216330     -2.79030676    5.30050807   -2.57960552
    1    0.95759975   -6.94992075   -5.86115042      3.81673414   -6.23990884   -1.00178093    -31.12547832   15.40248647  -10.97261214
    1    2.00624510    7.20772541   -4.87592455    -15.73672983    9.34080790   -8.26781522     31.93384218   15.05949629   53.43884524
    8   -4.75272612   -6.05021466    4.90305000     21.08637454   -1.29893373   10.29168587      0.42692068   -2.94869504    1.10487305
    1   -4.39557362   -5.19611787    5.20788385     -3.31922410   -4.87670412   -5.74353658    -40.67153157    5.72988648  -31.01380442
    1   -3.97839985   -6.65181228    5.04290259    -21.19458624   11.05553503   -2.58885309     12.75407474  -30.24890036  -11.92900882
    8    3.40507614   -2.14943940   -5.44489586     -6.04209400   -0.89782218   10.75567907     -4.43731110    3.78733566    5.69739727
    1    2.50331531   -1.84476594   -5.68307859     -0.26794064    5.99955921    3.67970195     -1.96870880    2.40335417   21.07832613
    1    3.71574215   -1.48772903   -4.80953478     -4.30370495    4.39239279   -4.79510874      4.09711410  -11.75626250   -2.90745187
    8   -0.05485894   -3.44849116    5.95348575      3.78864428  -28.06745034  -24.51214747      6.05091047   -1.10222143   -5.59793612
    1    0.76052030   -2.99050304    5.75826784      8.73679062   11.93280255    4.32531589      5.08025131   23.78174632   29.00749392
    1    0.05009590   -4.24818660    5.36611482    -10.97071227   12.53964858   18.44785604    -39.89862151    8.51342408   11.30699548
    8    0.46533945    1.51495478   -4.58529869     -0.19041694   23.20799955   21.82798963      8.09028755    1.18891841   -4.59089853
    1    0.60341163    2.53892228   -4.38430404     12.20769678  -70.35402167  -33.62583771     14.39945297   -2.64694208    5.42344234
    1    1.20422783    1.15698144   -5.14560003     -7.38659855   41.66845796   13.58426616     21.11980250  -11.72110433    3.93301757
    8    2.83865558   -3.71049374   -2.38076814     35.32875173   24.99325909   33.42970950     -2.99128420    1.90478842    3.99406916
    1    2.18457047   -4.15049935   -2.95136217     -9.74637963  -23.67254349   20.85680505     -9.62288859  -39.63049745   16.44136699
    1    2.99666257   -4.24893361   -1.53377161    -20.48906471    4.18783886  -56.55607621    -18.17647276    7.17353105  -11.84003756
    8   -0.95466204   -6.95172464    0.91742094    -45.23713704   -2.11706325   -4.63884914     -6.07372414   -3.74102744   -1.98949752
    1   -0.00132483   -6.95564865    1.08036161     12.59393002   12.30840130    9.36269453     15.66563258   25.63595878   -4.93738027
    1   -1.28686457   -6.08560423    1.27372323     21.13441627  -11.08938832   -4.45051658     22.04797083    6.21519414   -1.43525885
    8   -5.99120353   -4.21400209    3.03897001      0.98251869  -26.77540121   19.58733047     -1.21208524    2.52474195    2.42118671
    1   -5.49323655   -4.50236952    2.25508861      7.56572821    6.44864736   -4.98690452    -10.04331902  -15.52302274   12.51954434
    1   -5.88568843   -4.98539034    3.65322805      0.54650796   19.27388096  -16.14309155     -1.17974998   -7.68490925  -26.82807668
    8    4.53116625    0.18406887   -4.19423366     15.06152315    5.11334941    5.96928747      0.26479083    1.27729417    3.38565824
    1    5.21424373    0.77777197   -3.79817491    -20.55561322  -11.62178545    0.51654229      4.39194178    1.14976543  -26.97522873
    1    4.20116885   -0.33081531   -3.43932304      1.56241301   11.05419100    4.46126444    -21.59679786   -0.82158499  -25.46926071
    8   -2.30479707    3.48933642   -6.95192866    -16.47067842  -35.12391286    7.43914697     -3.90527801   -7.19925414    1.03238573
    1   -2.95092133    3.20542115    7.14453348      7.50423021   15.91481140   -1.28646823    -22.85346149  -14.44204143   -1.95270805
    1   -2.31065713    2.67190579   -6.37350615     14.63520657   25.26290643   -0.31942389     -7.24541247  -15.25097917   -3.10633149
    8   -1.15952637   -3.19973244   -6.31083801     14.84481558  -48.38828136  -12.03363213      0.71772627    1.77682325    4.68331699
    1   -0.65884059   -3.52280660   -7.06617482     11.48845122   37.62079898  -25.96073903    -32.82634915   25.76023792   32.31937415
    1   -1.29670613   -4.10844413   -5.98216702    -23.89330672   20.09075074   34.13203036     -0.28883032    9.87251584   22.35221838
    8    0.27676152   -0.20340994   -2.21286946     53.56234040  -16.55704500   16.37235434      1.77851417    0.03969585    2.24639505
    1    0.52121504    0.51614842   -2.83326729    -33.94603371   -1.75486123   -3.08017601     -3.30663151   21.23923329  -26.09242867
    1   -0.68013997   -0.22466749   -2.08082814    -19.22133195   24.02356348  -18.52162982     -9.32060053   -4.64227626   -7.91509806
    8   -0.33649181   -0.64336502    1.68556959     60.64421959   63.56548278   27.56560760     -2.49530772    1.47954090    5.01296466
    1   -0.33339069   -1.11730896    0.86335830    -35.19548937  -33.54059179    0.42332604      0.02193747  -12.63380429  -13.13808671
    1   -1.06825377   -0.88400460    2.27289300    -22.25817944  -29.75753401  -30.93968737     -1.73413268    0.58967443   13.40594912
    8   -3.28294016    6.85523292    6.37304548     28.86902053  -26.30455196  -28.62012435      0.31281693    0.95237044    1.13749221
    1   -3.94801297    7.18574729    6.94235660    -29.73637781   25.28077820   33.25359273     16.80299281   48.89716814    1.02560007
    1   -3.57016606    5.93684581    6.29869332      8.83641510   -6.98322017   -5.94512516     31.52896822  -12.28854339  -13.93961727
    8    2.91492223   -1.03165082   -1.96293219     33.38267444  -34.28989392  -18.30354014      4.90375206    1.09805579   -0.29025123
    1    2.69422529   -1.94282801   -2.35042855      1.79462980   36.08729562   21.88202988    -19.16872624   11.29279213   -1.22274102
    1    2.08587604   -0.60834888   -1.77752135    -28.22656668   -4.06660707   -6.81434645    -21.60885913   24.89422865    7.86305816
    8   -7.21188083    5.84781385    2.59784267     48.01024637  -49.85071939    2.55153933     -1.65700631    2.28543232    1.21519710
    1   -6.92310546    6.07806725    3.50594868    -22.38535578   19.30114080  -10.82402908      6.24457517  -11.49523891   12.14669508
    1    6.88176451    6.45692799    2.34518011    -26.67793149   33.36618579   11.77605295      5.91455303    4.65140168   -0.13459486
    8    4.87645079   -6.34695969    6.65870127    -19.54787946   -1.82808643   25.38260170     -4.74118261    0.20603803    6.17612643
    1    4.11459012   -6.53961968    6.08538394      4.03105729    3.74693800   -1.53022005     25.64624414  -16.93115264  -60.48639073
    1    4.46318780   -5.84140307   -7.35914589      5.05038596   -5.58489451  -17.73406405     13.32964813    6.83940985   13.73477297
    8    0.07036943   -5.70552529    4.38034406     21.17318775   28.48690681   10.67662815      5.93973523   -0.80049603   -3.46886147
    1   -0.52172092   -5.46003079    3.64980989     -4.01440924  -21.31824467    1.94119625     15.24954075   -5.58337263   -0.97080658
    1   -0.04074793   -6.64380515    4.57254884    -24.62403685   -6.64955793  -13.85594850      1.14781763    2.75941726  -17.33666794
    8    5.89497340    1.03351989   -7.22649670      1.30267307   -6.93385315  -12.36823226     -7.92933479   -7.26777359   -6.87376935
    1    6.19830019    1.86937390   -6.85678663      0.39780908   12.09609038   10.42101380     -4.44601049  -24.32455218    7.22045935
    1    6.34970641    1.02237511    6.66482378     -0.95579122   -6.27847460    6.55355004     28.84708843   -8.11011990  -27.45176702
    8   -7.37345887    0.62752072    5.27803510    -56.26288097   66.22431092  -23.94242537     -1.37906241   -2.65343241   -2.75207709
    1   -6.84053995   -0.13747150    5.52538159    -21.11448752  -33.11554125  -24.50542541     22.49561187    5.26370777   34.95297778
    1    6.58288104    0.41598730    4.62941309     79.20432932  -32.35840313   48.05635158     -8.54628724    7.63219764   -2.81928849
    8   -1.16504333    6.36321062    4.45124651    -47.85086844  -19.75195273    7.55245668      4.36137454    0.87978788    3.14914218
    1   -1.83676311    6.25156802    5.16447778     29.17537320   17.32815320    4.60843416     29.62554491   23.62591362   29.69392615
    1   -1.68517446    5.87169379    3.78560199     28.60498034    6.16208084  -14.60974409      7.79719026   56.57938248  -20.06943027
    8    0.25414719    4.56504926   -7.04265726     -8.63143411    4.65206586    0.43014938      1.46632528   -7.66165627    0.87794540
    1    0.68613024    4.13172409    6.96881805      6.13730130    0.97894400   -3.54097228     -8.55031005   -0.08273780    8.40947883
    1   -0.66652301    4.24979116   -7.13441815      0.13828587   -1.50985381    7.25243451     19.90489178   29.76373238   -1.66139239
    8   -2.10245422    1.38301450   -5.44132730    -27.55901742   -9.99077548   -9.88427916      3.39150683    1.54706125    1.60326676
    1   -1.21810451    1.13735224   -5.12366664      4.10901778   -4.51975406   -0.02147795     -9.02379395  -21.45292308   15.57330118
    1   -2.53392925    0.54847954   -5.73764350     16.97466442    8.73491496   10.55893032     -5.16162268  -12.29963226   23.28726422
    8    0.28594926    1.60028609   -0.03825043      8.56167615   -1.11411238   -7.53635181      2.08546448   -6.02407634    4.12769844
    1    0.56645684    0.97434576   -0.73979572     -9.52666168    4.22743662   13.68437326      4.62443694    4.25025226   -0.69631751
    1   -0.02984171    1.03959887    0.68307452      0.54635583   -7.78343162   -1.05258508     -5.52341911  -17.54981770   23.81912483
    8    5.42523415    6.60515856   -2.74867288     14.65582339   22.97725732   28.80140683     -3.52184282    3.83811199    1.16779542
    1    5.96734069    6.39771254   -1.94644636    -12.80983511   -3.21765376   -9.31104978      4.46549141    3.25784755    2.20528421
    1    5.63391484   -7.21175296   -2.83434320     -9.15041086   -0.57907479  -11.55546262     18.65966503   -6.73545043   13.21349069
    8   -5.72593517    1.18803621    3.13796389    -24.36213162  -40.06464725    8.71272248     -4.37703121    7.15828874    4.67848560
    1   -6.45235620    0.95935261    3.77932241     24.35340903    5.69087460  -13.02667210      0.05979727   31.37642194  -18.02418153
    1   -5.71722959    2.13487572    3.15771985      6.07923548   35.79021492   -1.45240929     26.15108501   19.50475594    9.92507573
    8   -2.91098753    4.08758941    5.19699702     16.55606245   27.62565368   -6.66236375     -1.86659904    1.56644960   -2.90863864
    1   -3.50344051    3.40240716    5.38308271    -41.11677008  -28.72876719    7.21578425     20.08979285  -24.81238855  -15.94771170
    1   -2.13870936    3.55335399    4.98959739     14.62146375    5.30155693  -11.05878245    -27.79840087  -17.34759708    7.98217971
    8    2.80251123   -1.91522850    0.71989015     -6.47694836   -9.03804446    8.67568838      6.64219400   -2.45283023    6.72691841
    1    3.20020647   -1.55743291   -0.11250370    -12.40674768   15.62980874   24.39834375      4.78482694  -13.19159629    8.48387676
    1    2.48858730   -1.17552922    1.30100303     24.19583610   -2.44742437  -32.96999943      6.22103483   14.82162062  -17.69815000
    8    3.23465044    4.15194847   -1.08066642      8.22915766   33.60150866   13.75405369     -0.38547227    0.85550118   -1.25068359
    1    3.57618375    3.36832630   -1.53619800    -27.59874121   -9.60442130    6.54502913     35.01081498   16.56378786   16.17874229
    1    2.31029765    4.01010180   -0.75335473     13.25066422  -22.66660081  -21.14737094    -22.59160782   37.53819841   21.57091081
    8    6.55536694    4.46520318   -3.52820969      8.56617312  -33.24417107   -9.05378022      0.40583609    0.87571179   -1.51692608
    1   -7.36950009    4.82624904   -3.88062231      1.51451309    7.35649710    7.32558673     -9.18488792    2.60784963   15.28666434
    1    6.00621932    5.24845937   -3.35354472      1.81155530   11.27682297   -0.41515174     14.62059782    7.54485499  -20.78719880
    8   -1.52711602    4.84192994    2.05093710     -1.87455539  -14.01349776   27.48291149      7.14474241   -3.30998077   -6.16359408
    1   -0.97593350    5.52280170    1.66614030     -5.20174581    7.03332916  -14.80681887    -13.04627490    6.97065339  -10.61530638
    1   -2.27837431    4.71758355    1.45200072      6.69094437    5.70598550  -12.21722265    -18.09860314   24.25122894  -12.09839272
    8   -6.23814695    1.63531734   -2.44316804     33.70141011   30.60895828  -27.75635876     -1.27661626   -2.04034881   -3.77554356
    1   -5.73409979    0.99534241   -1.95806156     11.31065419  -22.97639719   15.36726286     -4.64651176  -12.62159700    7.12628251
    1   -7.12792937    1.45774188   -2.21831984    -37.60138653   -7.08954981    9.61134169     -6.31465654    0.87284607   -4.05576203
    8    2.86490448   -2.28642604    5.45446375    -26.12545771   19.30075732   -2.61678371     -0.13960906    5.74948756   -0.04241310
    1    2.42827236   -1.42802448    5.38753042    -26.05318282   -8.11426996   -5.86358806     -5.48504443    4.12191617  -20.82363030
    1    3.66300977   -1.92463133    5.76557322     51.78911396  -15.53528947   16.38727584      2.73105295   -4.18172841   -0.96799307
    8    3.58259713    6.68264247    0.38985199    -27.54557103   -7.63308801  -18.99776044     -1.77943645   -0.57223720   -5.91453585
    1    2.68133089    6.98502843    0.57231023      3.63335786   23.37256432   26.25809432    -13.61550973   57.44645019   16.46243186
    1    3.30385234    5.94768667   -0.16023929     30.78759122  -18.86828935   -8.45146204     29.01844782  -10.59456100    9.62890185
    8   -1.30193378   -2.18368525   -3.59081243      1.13001559   31.27832986   13.41009954     -0.99407595    9.76010193    2.51404159
    1   -0.59363226   -1.47776490   -3.55179953    -17.91927644  -40.51272749   -7.94294795     -7.67305934   22.88775635   -2.13897125
    1   -0.94240590   -2.94903720   -4.05275452     15.33842499    7.65478746   -3.75028404      3.04412816  -11.41023704   14.26358686
    8   -2.90955134   -3.46766444    5.67944034     16.22899038   38.38463105   -3.03339423      0.05837953    4.59013760   -3.42723024
    1   -1.94420169   -3.39474209    5.71801776      4.85734451  -25.53764713    6.17536311      3.58274115   -7.94496416   12.32325931
    1   -3.06704194   -2.52164999    5.46481593    -23.64865702  -14.47085474    0.63715235    -15.43595119  -24.29570847   -3.20204029
    8    1.83392342    0.21660885    6.05786326     11.59817883  -38.99991787   48.09642051      1.82138875   -1.81351560   -2.67269098
    1    2.07219800    0.94966333    6.71100938    -17.09626078   -5.62276340  -55.50163598     -8.18003940   34.38478490   20.99192923
    1    1.55522249    0.50485367    5.17506050      4.49193898   42.58959802    9.56277434      5.49080259   18.99317958  -16.45965149
    8   -6.83445786   -5.32441264   -1.74948402     39.87183484   -1.42139637    5.25566779      4.62528471   -3.67217614    3.82136511
    1    7.08019541   -5.14943565   -2.16533097    -25.56885117   -2.09627441   -9.52071681     -1.62659640  -11.86133722  -25.01092427
    1   -7.03675993   -5.92742684   -1.02857584     -8.00522887   -3.35766851    2.07972227     -9.35256153    2.22855758   21.07914222
    8    3.93557197   -4.31436077    1.81069304     53.56612593  -33.73925572   19.74330125      2.39573374   -2.65897072   -3.32153953
    1    3.41273608   -3.52318676    1.71725424      7.06278415   28.22366826    3.56008582     22.55738284   18.83229833    2.13040688
    1    4.82124212   -4.06919814    2.27543469    -60.61172492    4.92017371  -27.34399799    -14.05693574   13.85399876  -39.27949801
    8   -2.31144061   -5.41115014   -5.31299534     -8.93107061  -14.13391279  -23.08383149     -0.01631163    1.70942874   -4.29113358
    1   -3.05466834   -5.06416357   -5.89934490     22.07528814  -14.63695083   14.21850493    -18.09873289   -4.53942330   15.06631468
    1   -1.88934663   -6.14295670   -5.84132119    -12.17371480   18.45068498    9.39570054     -5.79135495   -8.59050210   27.52061401
    8   -5.56239077   -3.01029369   -2.11947110     -7.99711400    3.90385837  -13.71366100     -2.07315307   -6.15985981    1.75239465
    1   -6.03859434   -3.85593813   -1.96339104     12.76151426   -1.24658395    4.42923798     -7.24631739   11.22003996   -0.73698265
    1   -4.59924369   -3.23377035   -2.06009500    -17.90037708    2.21415959   10.54689271      1.77068084   18.38262766  -14.66051995
    8    6.94591531    6.76377109   -0.38736972    -55.68900632   19.93506781  -66.89157217      5.07115000    0.08669400   -3.80778148
    1   -6.96050597    6.43396790   -0.22080419     35.83149886  -13.13064218   39.39007356     29.56897032    0.48540761  -20.34888762
    1    6.52003499    7.07298054    0.41357663     21.39001063   -6.45774974   25.47545112     -4.94215239   -3.43645465  -20.89643192
    8    1.62549636    5.81801578    3.65109876      2.75510906   45.95873008  -43.02380275     -3.63150502   -4.27694006   -5.06197409
    1    1.93210526    5.07279559    4.15738736    -23.83190599  -12.09468447   25.64269116     59.28826062   13.65412299   -5.62826216
    1    0.72930943    6.10247711    3.93184468      9.32399809  -33.81421387   21.35057594     -6.06895339   40.44121389  -27.72777470
    8   -5.35009128    3.80911163    3.13775213    -38.55899930  -10.21082858  -45.85391047     -0.51150547   -1.00951463    0.35754948
    1   -4.96180129    4.33357381    3.78295837     21.22467652   29.64532864   31.74956386     -8.12711813  -24.37499316    2.61434346
    1   -5.92768336    4.43864291    2.62682071     15.07331862  -12.83059468   16.96665724     -8.02975974   -5.25344171   14.61282611
    8   -5.31271132   -0.75827084    1.39242117     -4.83094442    3.59812942   -8.97838599     -3.85778247   -1.96107065    5.19075035
    1   -5.36280788    0.14897029    1.79959686    -14.00972150  -26.74058248    5.84616675     24.88760806  -20.90730322   21.76674933
    1   -6.24778767   -1.07443937    1.33479016     20.92922376   15.30709477   10.47873685    -37.12488639  -11.40697893   21.70105901
    8   -2.98290580    2.93115971   -3.01161819     13.80539075    6.38596590   55.99030918      4.92803542   -0.73520810   -3.01173162
    1   -2.21585579    2.63324949   -3.53741390    -30.19323417    5.19581558  -24.59807355      0.29495813   11.07777657  -10.44214716
    1   -3.74582693    3.14385486   -3.55588207     16.77571759   -8.48557978  -27.40802753      8.45810975   -9.81627916    4.47915897
    8    0.56727765   -3.18239839    0.08133954    -46.01724654  -19.62510952   -0.21043630      1.26878711    0.80593648   -2.50605419
    1    1.33244771   -2.62735696    0.22655353     25.14221301    4.13326818   -8.12742859      8.30469001   28.15896639    9.42872538
    1    0.55091930   -3.42094359   -0.86034333     14.75078637   10.62161372    6.80208885     17.86332955  -27.20218833   39.05811301
    8    5.46886525   -7.09119062    2.11569475     21.16213281    2.06466207    4.35987256      1.15229856    5.78713926    2.49987685
    1    4.79059378    7.30415859    1.49431167    -11.85512035   13.78140892   28.31184447     52.40930144   14.32562054  -49.89385507
    1    5.03200231   -6.62529263    2.87740464     -8.83006733  -20.57595655  -35.58231743     48.91698440    0.01052936   14.47185234
    8   -6.06075816    2.96759104    0.16894379    -11.37973024   23.16701164  -15.41777069     -4.60874365    2.73661852   -6.44457030
    1   -6.06137810    3.90989269    0.41809532      7.87064353  -13.59923946   11.59461437     22.51713698   -4.80216342   -1.46891133
    1   -6.27857800    3.07385880   -0.76794752      4.30068035  -17.22772793   -0.19477245      4.04850367    2.58626158   -1.17517869
    8    6.72359059    3.37161957   -6.17547538    -42.44377222  -40.02585970  -30.79512925      4.32653467   -2.85044598   -0.00124445
    1   -7.24441536    3.42215427   -6.71588293     17.67154833   23.95720961   18.07503797     -4.08721598  -16.72828233  -10.54615641
    1    6.82448716    3.84118004   -5.35428532     26.01941141   16.02987310    9.89154568     -3.55884632   33.74212588   15.01608309
    8   -5.06717193   -7.03787254   -6.62006100     -6.49335684   34.86247829  -26.90309385      1.90287784    5.06297995    2.95376287
    1   -5.25444417   -6.08455941   -6.81462556     10.76074259  -23.41741545   -2.33232444     -7.85834028    1.15739951   -5.95551772
    1   -5.28347199   -7.07045139   -5.70627207     -5.88960224   -8.71527612   31.51539154    -26.67744339   21.94526912  -22.72416804
    8    6.30644093   -3.33774754    3.25547986     18.67210270  -29.65052061   16.36223595      3.69511559   -0.17685011    1.73151748
    1    7.19311027   -3.65163551    2.91905894    -17.63239745   16.10618723    0.03197476     -2.78699438   13.24737636   -5.67067214
    1    6.27863047   -3.89404170    4.09092541    -10.57593247   18.25194851  -19.46313288    -47.98943813    8.03241327   27.99893499
    8    0.69592858   -4.99646273   -3.17678027     -0.76734297  -13.56328517   -0.80461230      0.78014910   -0.68170951   -3.49737621
    1    0.25619234   -5.53397956   -2.48439833      6.83326126    4.16352998  -13.02182978      1.12828948    3.83882700  -12.66288544
    1    0.99646835   -5.69787411   -3.81496600     -8.95720481   11.80581683    4.48796958    -12.59010141   -5.42944126   14.95826667
    8    6.03572093   -0.50901247    3.34444514    -30.43606989  -77.54078252   60.38290342      7.10804077   -9.94459040    3.61727821
    1    6.06605656   -1.53172317    3.39052680     -2.83637540   50.23898422    8.09130222     22.39494020    0.39854168   -3.97730956
    1    6.36057004   -0.39262796    2.49727318     26.43460657   20.74096473  -64.90121575     -0.86896978    3.40453881    9.84339740
    8   -3.23863985   -1.30397068   -6.12442593    -17.66833325   22.18050883   37.76128248     -1.74914019    2.04969726    4.01801426
    1   -3.00789167   -1.57895160   -5.22875181    -14.77378319    9.79802413   10.65298538     20.87733836   17.16243410   -1.89058456
    1   -2.62499269   -1.82467643   -6.55566298     35.38678367  -31.00492272  -44.97017748    -13.79305497    2.24186424   18.16443356
    8   -4.25611887   -4.31468671   -6.72383196      2.66044095  -62.21378121   10.60732073      1.84634807   -2.18935549    2.84221688
    1   -4.63392999   -3.57141858   -6.27600973     -9.56522261   36.67389961   -2.02467745     25.99513914   20.45837794   11.02948751
    1   -3.86878528   -4.01570042    7.21583712      3.07335709   28.64462381  -14.37145817    -18.70411659    4.24802292   -6.30226178
    8   -0.87212685   -7.30979957   -6.91444544     -2.61079991  -13.94677103    9.05374809     -1.38167226   -5.94906695   -2.23239098
    1   -0.68076713    6.55981918   -6.58040253      8.02528834    5.39485125    1.20517795     27.59552189   11.00360181    4.34580489
    1   -1.56870917    7.24852447    7.21761080     -9.33493822    6.71995005  -10.90579545     -0.86040187   21.40478534  -17.94975359
    8    5.62756980   -4.99830411   -2.97964433    -42.05090632   41.38578716  -30.66672584     -4.37403165    2.79824317    4.51691485