 BEGIN_INFO
   #
   # This is a XCRYSDEN-Structure-File
   # aimed for Visualization of Fermi Surface
   #
   # Case: Tight-binding calculation
   #
   # Launch as: xcrysden --xsf HICOLM.XSF
   #
 END_INFO
 # estrutura final
CRYSTAL
PRIMVEC
      14.70791841       0.00000000       0.00000000
       0.00000000      14.70791841       0.00000000
       0.00000000       0.00000000      14.70791841
PRIMCOORD
  300    1
    8   -3.45113913   -4.55439568   -0.91425402     35.86664170   -0.44898692  -39.41079143      2.59702855   -1.82366697   -4.64782577
    1   -2.73186053   -4.05991730   -1.34503576      1.12283172   37.77131573   27.48163693    -14.58183499  -12.46665920   -4.79403084
    1   -3.30618281   -5.28792864   -1.50395791    -28.16952233  -39.66008265    4.32667221     31.70336542    5.06018320  -13.95384547
    8    3.43351518    0.23272708    3.63059347     15.09903692  -16.23729148   17.49257345      1.58948803   -0.01121892    3.12683954
    1    4.32767017   -0.13012833    3.69230001     -3.67661493   -4.83692255   12.14885453    -22.99349955   -4.22718628   29.64324550
    1    3.49381741    0.59676812    2.76179662    -11.72712392   19.06701155  -28.08801851     14.46404609   17.36157593  -12.32244068
    8   -7.18404791    4.30384554    6.34320888      9.09479293   -4.05648857  -11.37649656    -11.93128566   -3.92949145    2.32598516
    1   -6.92577693    5.22300668    6.11633288     -8.13775493   -7.10869054    2.24933453      8.83435863  -17.88395840   10.13362180
    1   -7.34489693    3.92261846    5.46127437     -1.52944499    2.56862503   12.68983306     59.42958760    9.26999077   35.64021436
    8    3.00957740    5.96842192   -5.60180933    -57.43065989   69.63103288  -22.40528547      1.56832179    0.08493139   -0.37379998
    1    2.53550071    5.40834247   -6.25805204     10.97404723    1.84785214   12.18573188     11.37106232  -22.67242674    9.05664922
    1    2.54201435    6.87999070   -5.75815761     43.66755724  -69.99824359    8.52824075     -7.74042488   13.19471129   13.48176012
    8   -2.81889051   -6.31409297   -2.95930095    -27.65916163    3.57078197   16.27675509      3.63970857   -1.87342758    2.71211854
    1   -2.62727520   -6.07184012   -3.86952543    -15.54733426   10.99083938  -26.24896148     -1.22817261    0.08962707   -3.67635610
    1   -1.93113020   -6.48991241   -2.68402975     29.71076911  -13.96803672   18.30447118     -5.48660909   -2.00311353   22.88847464
    8    7.18581144   -1.59647171   -1.62437388     -3.55075503   31.79138352  -18.46268393     -4.46857855    0.76599242    0.60351508
    1    6.89168981   -0.75875240   -2.00421110    -16.69430426    1.54582067   12.96590559     15.41386788    7.01729536    0.24867103
    1   -6.92081363   -1.82337996   -2.31200731     21.10899922  -29.61932137   -9.89227645    -29.48307179    7.44930649   20.04115035
    8    4.18869056    0.52322833   -5.53146851    -13.21691847   -3.17996722   -2.49804824      3.34002073    1.32921622   -2.94789820
    1    4.82050663    0.38225260   -4.81753296     10.15017641    6.23622083    1.68836278     11.57206082   21.44980705  -20.81768929
    1    4.74731789    0.64661437   -6.31215146      0.38964176   -3.81886061    1.97842986     10.07391705    4.02605366    5.65206784
    8   -0.26337913    2.16499697    6.80882299    -24.80863742   16.71647919  -18.94182408      3.84173761   -0.12219973   -0.30439729
    1   -1.08788359    2.47020601    6.37052635      6.18386681   -9.52775779   22.77828352     -0.08523170   -8.06877567    4.92964284
    1    0.31957198    2.28020942    6.06594442     21.70125932   -6.09570208   -6.94577787     -3.73408440   -3.94198781   -5.69255438
    8    5.48109292    2.69771929   -1.80595606    -20.04017565   11.40575191   -9.99102768     -1.97918876    0.07462349    1.13568639
    1    5.21044261    3.27816125   -2.56170803     14.69818454  -10.61591973    4.28954459      8.48216513  -10.43085205   -9.43009103
    1    5.00066911    3.12125070   -1.08449672     -7.35032161    0.30155501    7.10722602    -15.26206629   15.38526161    4.64012010
    8    6.76648920   -6.14508906    6.01685210    -21.88358395  -32.00131343  -15.43774640      2.20853423  -10.08047541    4.13198216
    1    5.81419572   -5.97145753    6.15995453     12.42031850    3.92519329   -1.79386548     10.68700143   -3.50823955  -19.90136086
    1    7.21469068   -5.45043403    6.48406672     11.06241319   27.89410441   13.68743695     10.43671966  -27.95505690  -12.88738240
    8    3.11718238   -5.48464644   -0.38668513     -6.20825744  -34.35353837   48.60464447      0.11663581    2.55432413   -3.54212568
    1    2.86345685   -6.37627119   -0.04311592     -3.32863187    0.25774700  -35.91224026      2.08062704    3.57242044   16.88111318
    1    3.43067750   -5.13970047    0.47827588      7.03668261   31.23655451  -19.83254280     14.63269684  -28.27532431    6.54839501
    8   -2.91686447    3.58080548    0.42419384    -18.82228118  -14.81871068   19.35460062      3.86655259   -4.20464716   -1.80614289
    1   -3.55245605    3.89084254    1.10670280      7.05560325   -3.68224117  -11.87036287     -8.63714918   -8.35620226   15.49835184
    1   -3.12130451    2.62412049    0.35383883      5.17730623   19.85911640    0.44313759      1.26076198   15.13975857   -6.19592892
    8    0.00259487    5.08114989   -0.63768323    -18.79835910    1.34204004  -25.29719581     -6.34689117   -4.84726364    3.07676469
    1   -0.72105051    4.85934662   -1.25463214      1.29687064   16.56536338    6.32552013      8.82163792   16.58374118  -13.41993892
    1    0.37188895    4.22285925   -0.54867906     20.65521925  -24.02657960   15.90790366      1.93639935   -4.99941048    1.52884794
    8   -6.98429748   -0.59129660   -5.13527407    -26.12324102   49.96657575  -52.10721058     -6.57521488    0.80180615   -3.38412088
    1    7.07743353   -0.25941432   -4.49590088      3.27794018   -3.22451646   13.32329479      9.01937238  -41.19860105   28.62916242
    1   -7.26548277   -0.05959937   -5.95278020     20.03653271  -37.67714540   37.07150670     29.03650079   -3.71536983  -23.89895159
    8    5.44067432   -2.48616211    7.32670296     64.34952079   -5.67864055  -63.43401303     -0.43010441   -3.97840239    0.05384778
    1    4.76285927   -2.37048401   -6.78187645    -47.07111211   16.79098415   43.93728353      9.30466587   35.69941789    3.45117965
    1    5.69594695   -1.57655840    7.03074364    -13.08050430  -12.17159594   15.31255269     10.16429121   20.65106773   16.65268704
    8    1.62383471   -6.94316151    7.16644412    -30.25174688   29.58066415   27.39083417     10.64687919    0.52575641    2.09467669
    1    0.64267595   -6.82272122    7.18354621     22.42019485  -13.99780568   -6.47577581     -7.76332587   -2.47155415   -7.29695046
    1    1.90787707   -6.13118122   -7.05608076      7.63624786  -14.96840199  -18.40473398     -1.76467985  -22.78677166    7.37806726
    8   -4.42020571   -7.08196241    4.52814915    -61.71887292   17.60200126  -24.95067196     -0.47420659    1.32851029    1.75952873
    1   -3.80198598   -7.26337992    3.77736152     18.63776477   -1.83142565   44.04780249     -1.80575063   -0.38032836   20.26639572
    1   -4.07031660   -7.24728470    5.40952962     43.73644857  -20.93714259  -16.30779641     -4.58097583  -17.60015353   -3.01783502
    8    3.44714287   -2.30386310   -5.40181983    -13.04987630  -19.35513335   -1.88154734     -0.98768589    0.35263059   -6.26760245
    1    3.58672027   -1.36934219   -5.17503380    -12.81695096   -6.02219741    8.77832328     -8.53579648  -20.14602945   46.05821648
    1    2.75034366   -2.65707089   -4.78869513     20.71579300   26.43074128   -8.67770646     -0.46561930   -4.41049210   14.87542264
    8    0.63949340   -4.03227050    5.63980206     28.17588127   43.92864014   25.10012092     -1.48847723    0.96246691    3.61109244
    1    0.89979594   -3.15400204    5.23969132      3.96052530  -20.21106279   16.61212855      4.86682708   -7.83104868   -8.17165209
    1    0.10338367   -4.38205949    4.97519971    -29.80727210  -25.14390229  -36.30173975     -3.45220301   15.53299577   -7.80325504
    8    1.99779983    2.03460160   -5.00357540    -11.97790180   -2.71038736   11.56716075     -8.85190999    2.86498215    1.19895165
    1    2.85521552    1.63407216   -5.17446224     12.74194436   -7.60485891   -4.75177563      5.12680745  -21.56175096    7.38145401
    1    2.04314454    2.86160975   -5.46530041      2.42646026   15.67549133   -8.53501354      4.18011413   11.92703301    7.51384142
    8    2.14011519   -3.16791930   -1.64518140     41.17824127   82.16638234    9.34152327     -6.15607538    0.81177357   -6.78181469
    1    1.44240969   -3.49400237   -2.15842706    -37.46890402  -34.43950787  -29.77494629     -5.27915243    7.02961997   -6.70204745
    1    2.41140152   -3.84775342   -1.07016838      2.53087187  -50.17480394   15.51463985     10.99615085   15.28946661   18.02993715
    8   -0.05675715   -6.16642837    0.02413916    -17.75872596   -5.68209269    9.43279860     -0.16360672   -1.93855403   -5.06546340
    1    0.87770700   -6.12389941    0.08339023     28.67968334   -9.60020516   -6.47433992    -11.24563769   26.32761355   -4.49365099
    1   -0.28268125   -5.37220616    0.52596253    -15.98861581   13.46753104   -1.63927672     42.27889899   37.48654920   -5.09359616
    8   -5.84174222   -4.66133266    3.80371581      8.13063652  -51.31292458  -62.92979887      1.56437408    1.35015319   -2.25942659
    1   -5.69766819   -4.66664777    2.81609375      0.84889587   40.77741320   22.76212467      9.01793386    6.91420906   -2.14947259
    1   -5.60783974   -5.60973033    3.85592213     -1.79771958   12.25608244   44.83064358      0.87412491  -12.02740772    5.24450871
    8    5.85319779    0.45047459   -3.33385554    -18.80654030  -63.93507054  -21.26700796     -2.67811289   -3.54857943    5.54369420
    1    5.65837584    1.17861160   -2.76570412     -7.17032949   31.62149061   21.50706960      0.99879842   -0.44866666   -5.66436377
    1    5.10024695   -0.20423620   -3.16176806     31.71813607   22.26971167    3.19264269     34.21817668  -12.15590687   -3.16032421
    8   -0.98186808    5.00009986   -4.57407944      9.60535261  -17.48037120  -13.21077945      8.25073675    0.18662386    8.87146606
    1   -1.21035781    4.06615399   -4.38181257      1.75785747    2.22295413  -10.21061128     33.22651424    1.47993645    7.63166600
    1   -1.51566181    5.43094269   -3.92587518     -9.84698690   16.62284900   15.46600513     -0.41569862   -0.39749399    5.19754395
    8   -0.25445681   -4.00769613   -6.33847628    -19.97260345  -20.43972174  -30.21848283      9.40476984    2.07215794   -3.74970025
    1   -0.04432218   -4.23327340   -7.28029057      1.90141425   13.65174445   18.99770063    -15.23198360   -4.64134118  -19.21874774
    1   -1.16127600   -4.37240388   -6.25737631     14.00136813    8.21971408    7.45827700     22.97367849    7.54927916  -20.77554125
    8    2.05905078    0.87201668   -2.52999779      8.48058232   11.57718316   -7.26329059     -2.44910145  -14.38079775    0.05453034
    1    2.16535156    1.60028760   -3.19270418     -6.30381964  -16.10840082   10.60868481      5.41934573   23.80168143  -16.70492495
    1    1.43039354    0.28217988   -2.97276694     -7.91644865   -1.21018900   -4.32181369      9.55022455  -32.38928478   -4.19355200
    8    0.03843266    0.29538392    1.58628898    -27.33212652   42.25170719   21.33890923     -3.52956148   -1.63359961   -1.96516113
    1    0.72617287   -0.25584282    1.19269848    -18.34065081  -30.92238125  -14.36283084     -5.91845280   34.60452812   38.75319456
    1   -0.86761335   -0.03751942    1.34003052     42.67986217  -12.57979189   -4.86698340     -9.39178368    0.49439100    0.18816538
    8   -3.80221482    6.03058693    7.13723360    -15.73252169    1.47878944   15.30236828      1.33500047   -4.52300200   -2.32499923
    1   -4.44039575    6.47928593   -6.97211436      7.43538745    7.45083433  -11.48620708    -19.78391123  -36.74646584  -11.82748901
    1   -4.13943068    5.12632707    7.18943635     11.42774386   -6.03564885   -6.84846653      1.52693081    7.45882968   38.88791721
    8    3.89439508   -1.30498750   -2.70294998     36.59209263   58.67186472  -22.83519259     -5.03019773    7.44403150   -2.58227943
    1    3.28149520   -1.87389329   -2.31366412    -39.61373807  -39.43704495   21.86359876      3.36387303  -16.65896592   -7.97588853
    1    3.38753295   -0.47220983   -2.81071825     -5.12207167  -12.45426682    7.55834484     21.47495033   24.50970477  -13.88085273
    8    6.85305905    4.64915157    2.92713303     -8.18849994  -13.57266273  -20.86627042     -6.35124234    3.52825610   -0.65174964
    1    7.06130744    5.20732092    3.66589293     11.68326720   18.11967906   22.39975377    -24.20167591  -17.69730638  -18.90267780
    1    6.15157196    5.17611149    2.49962655      0.36916666   -4.82868834   -6.93921180    -11.62577496   -2.42168133   13.67193114
    8    4.32487784   -4.85913715    5.62483974     20.19408736   15.61716279    9.44995465      2.62316758    0.12337561   -6.25853583
    1    3.49568092   -4.92135491    6.10428457    -16.55359519   -7.99136248    2.22309097     18.48659583   21.67460839   50.28244032
    1    4.75290269   -4.16429191    6.16054181      0.71548255   -2.99110560   -9.68783556    -18.42026473   11.18990905   46.14501394
    8   -1.06443657   -4.83595314    3.44490770     -6.27006120  -15.04366419  -29.48842733      1.17450742   -3.21817240   -1.00188897
    1   -0.85190450   -4.53823481    2.55019979     14.01765673   30.16933759    4.77987553    -14.81254093  -16.15052559  -16.41321179
    1   -1.45525569   -5.67288953    3.13880172    -12.32755305   -7.44943691   27.30537963     -0.53685106   11.70488930  -16.28281134
    8    6.09933017    0.29887499    7.10332516     45.19604207   74.32413793  -29.14734695     -4.53402954    6.51945824    5.54049245
    1    5.82273799    1.20859852   -7.33426842     -9.27074161  -19.06993339    2.91568711      8.34566385   -0.29889153   -2.14517086
    1    6.79444524    0.61941875    6.41077825    -36.75718427  -46.67401991   28.39815427      3.13525081   -2.26517231   -7.56880895
    8   -7.13696096    0.63686747    4.93983262     27.77402554   -6.02921397   12.32402655      0.97775944   -1.14177188    1.11793127
    1   -6.84589400   -0.29721505    4.96566959      5.08230680    3.44197017    4.49504009     15.02312620   19.08492919   19.72194136
    1    6.85908985    0.58161057    4.33270032    -26.94526960    0.18568563  -24.29114222    -52.34887790   16.69602271   -6.50805885
    8   -2.46656894   -6.90284603    2.36686074      2.03764701  -40.72487663   -0.20181362      6.79927084   -1.09243973    2.85161335
    1   -1.82878112    7.08773368    2.63507164    -23.52200181   17.93147735  -15.06752404     -6.25447934  -36.12603188    6.88099746
    1   -2.96975780   -7.31247510    1.60398450     25.47611006   17.55187913   24.50420300      3.35135319   -3.62163829    2.59522335
    8    1.08253587    4.34268348   -6.76450483    -54.22098706  -32.36902792   35.13199368      1.79181426   -3.16085015    0.16229722
    1    0.57460486    3.52778625   -7.00290216     23.89670767   12.34043520  -18.31578774     23.48322527   24.75244192  -36.24214323
    1    0.55274525    4.54862155   -5.95692081     23.23804497   18.04576886  -12.29567748     35.24904675   12.81513350  -15.66420369
    8   -2.04363858    2.46878119   -4.60927644    -23.62346333   15.74060662  -10.80768420     -0.55119628   -0.14843672   -1.88923009
    1   -2.78189088    2.37536836   -5.24775309      7.70002502    4.88060376   14.93577898     23.36001860    8.36179437   28.30403583
    1   -1.53836016    1.69808238   -4.77700326     17.60360191  -21.60882795   -3.93740750     23.52641470   -3.57723731  -14.42865933
    8    1.20995265    2.30681757   -0.02471456    -18.38756642  -63.12015547  -19.57292143     -3.75970830    0.82696746   -0.67837806
    1    1.27764256    1.67419789   -0.80160699      7.14405333   37.33401960   17.33446355     20.70997788   -8.21434924  -27.23777427
    1    0.85965535    1.66058699    0.64197559      4.58273297   29.21174015   -0.52689847    -25.61429216    3.94217486   42.29423578
    8    5.29397634    6.74242800   -2.61777896    -25.57873328   33.36964572  -21.03746348      0.15778541   -3.01352573    4.29956092
    1    5.75404778    6.67846140   -1.79095944     19.51711306   -5.99881946   20.54697541      9.03871168    4.33472187   -2.35762892
    1    5.13213364   -6.99064060   -2.69020189      6.00703179  -22.83385009   -3.47252874    -42.13397196   11.97589626   -9.00344403
    8   -5.33426188    1.56039326    2.90540195      0.79986585   20.86714989   15.11949522     -6.51968309    2.45257252   -0.71690850
    1   -6.00771141    1.36468586    3.59047542      7.93667005   -0.38481746   -4.77138219     -7.85910810   -4.02636795    8.46488063
    1   -4.93669411    2.40763215    3.22933664     -6.53866407  -21.12205611   -6.77744297      2.91905830   13.59701104   15.07194609
    8   -3.87716168    3.68900723    4.54641744    -24.22394345   -9.36016257   35.00423798     -0.38745782    0.96783437    0.82928213
    1   -4.12790002    3.45771143    5.49031116      1.23126345    5.33255023  -28.79836034     19.37215822   -7.61269334   17.53457193
    1   -2.93817431    3.79195571    4.65318216     26.66803663    3.16080926  -11.23352644     14.40562568  -20.65170017   27.78914121
    8    4.17172646   -1.35457232    0.37073780     -0.65933448  -13.25070459   -6.58436632      5.38545835    3.42895761   -4.41602940
    1    4.36740870   -1.17122140   -0.55893906      3.83660147   -6.86781283    2.14307574     20.59769388  -32.20016622   -3.70285118
    1    3.88676847   -0.48397241    0.68227486      5.90996787   14.96888341    6.42974900     -8.81532489   -8.79758966   14.17068603
    8    3.34599900    3.83211064   -0.30014672    -52.20560386    8.25203637   30.63681580      5.40574658    2.75144062    3.99700716
    1    3.05854602    4.55466843    0.23394180     50.75621666   44.37925093    6.14954017      1.23597235  -15.77686001  -16.67385978
    1    2.44918005    3.47408176   -0.18203344     11.26461725  -55.32429388  -35.35865789    -23.24793281   14.48341197    5.38553256
    8    5.52946837    4.36528588   -3.96544290     -0.93349915   34.03430986    5.76132687      0.57661057    2.13886091    6.52599458
    1    6.50572122    4.41959335   -4.04002521     -8.02822033   -1.70045180    2.28255911     16.61453369   36.38856868    1.12622214
    1    5.29361131    5.30045438   -3.67285709      5.73623507  -34.38401130   -8.02389047     32.97562907  -11.23913028  -17.29183124
    8   -1.12035871    5.24660045    2.10834814     14.01220251   12.62386019   98.01077059     -1.35706701    8.96298441    2.06905844
    1   -0.60452848    5.88695425    1.63256562      2.04257276   -2.89030936  -39.42918443    -19.96657266   -1.78272605   21.70325187
    1   -1.61614719    4.72882179    1.52912899    -15.50686011  -13.62910798  -61.16335610    -11.12630910   11.17754814  -21.97071507
    8   -6.74240910    2.10503914   -1.27604274     -5.06026857  -57.88928105   31.37835819      3.29097221   -3.31551988    2.21129358
    1   -6.77513099    1.18067948   -0.91800078     19.27723719   34.53046620  -14.93984093    -19.45850574   14.48270381   -5.48161852
    1    7.01323819    2.30405520   -1.25675258     -0.18223923   21.04299646  -15.52820467     19.28781824    8.04400659  -11.59959365
    8    1.79491443   -1.63402201    4.99636926     13.76445330  107.22323161   76.00984427      2.70836986   -4.86860440   -1.08009370
    1    1.77653450   -1.04845040    5.84146279    -24.99510754  -76.85909580  -18.63339092     -2.44541342    1.30515259   -1.03089657
    1    2.22225854   -0.88095618    4.56640545      9.13477046  -31.38823796  -55.46116614    -16.99766641    0.89327605    9.65849101
    8    2.38560134    6.68715511    0.08799909    -13.90228424  -26.61766236  -48.41511517     -0.58687743   -0.32594853    2.90945714
    1    1.89748457    6.54274743    0.90449412     -8.15249690   -1.18892715   18.45564676     25.38591984   -5.06969237    8.31807868
    1    1.83151560    6.18914450   -0.60764988     25.30240368   29.10134160   37.23365521      4.49711881   -8.44982662    3.23673633
    8   -1.52145156   -3.08479519   -2.20866701    -13.66214737   59.55848879   52.17992455      3.29191865    7.61510704   -4.11057506
    1   -1.11775429   -3.10308675   -3.03183873     24.83075948  -15.96557850  -48.35171179      2.53889958   -9.68283482   -3.57551072
    1   -1.29166405   -2.14902434   -1.93817499    -16.03781991  -42.75424457   -0.01223716    -15.40561010  -18.53795085   13.76475850
    8   -2.42649977   -3.23780239    5.39755251     -4.88215979  -22.45180014    4.93363590      0.78341453    5.05496031    7.07841728
    1   -2.10566486   -3.76247840    4.59449348      0.64470372    8.86308083    8.23319877     -2.89193106   -5.99138666   -6.83204554
    1   -2.10122031   -2.35728476    5.25776047      4.77607494    7.59401708  -10.33283133     -2.78837469    6.99244099   14.42043850
    8    1.59813519    0.04337091    7.30899761    -30.21509707   -8.19307852  -38.33696657     -1.63227098   -3.33574933    1.17169853
    1    2.22514453    0.30920942   -6.81491917     26.36683191   12.24125964   30.61691177    -25.15543753    0.20664462  -14.97188376
    1    0.94046650    0.79606494    7.32564842      2.71526767   -7.30328086    3.44695725     18.54104895   30.91322691   20.53620328
    8   -6.93185424   -5.56105357   -2.00442296    -31.43908502   -7.20257516    7.52825831     -1.23740943    0.26802000    0.72512014
    1    6.79863009   -5.31678461   -2.21285103     18.48960328    1.53688815    0.94155092    -21.18370300   28.83550564  -36.50290470
    1   -7.12971308   -6.35192286   -1.38487648      5.04197936   10.74000249   -5.01171498     -2.24462082   17.67343431    0.00848008
    8    4.11167766   -3.88785349    1.45205618    -27.61173441   38.26982022  -13.71239449     -2.03894392   -1.66515451   -5.27773912
    1    4.03300280   -2.84240837    1.16799341     13.86122121  -45.35124863    9.26370382     -3.43500336    7.20832992  -10.93894887
    1    4.91199226   -3.92286276    1.94814783     23.95967192    6.98268072   13.24356873      1.20798910   26.04425323  -18.79295754
    8   -2.53924732   -5.64972874   -5.42759335      5.91760404    3.92578181  -17.46697046     -4.43197587   10.19597625   -0.26925450
    1   -3.13129903   -5.48227304   -6.21502734    -12.71542206    9.45189358    1.89735572     10.63967676   -1.87319814   -0.56482493
    1   -2.00777244   -6.33910957   -5.88602243      9.35909990   -8.74174417    2.79277203      9.56423685   -8.37471983  -13.41465102
    8   -5.22785255   -3.33756191   -2.71881966    -53.58865036    4.76039232   -2.95976758     -4.43962133    0.60696283   -3.61536460
    1   -5.91521661   -4.00421336   -2.33235452     13.48052306    9.16498006   -9.66581880     -9.83369735   12.88707378  -29.12178171
    1   -4.46537565   -3.70561746   -2.37776999     32.20777271  -15.15938890   16.04934578     -3.56555866    9.65340061    2.72122109
    8    7.08314576    6.94805867   -0.52493917      4.64166461    6.31237277    1.62516472     -0.27045964   -1.09149587   -1.96524514
    1   -6.68365704    6.88705036   -0.19161661      5.26483965   -3.52127562   -0.30577090     -2.82195677    3.58379089  -15.12223824
    1    6.61751759    6.67561608    0.28768200     -5.61589916   -2.94618467    4.77878219     16.38290476   -7.86371739  -14.86487064
    8    0.89336792    5.86822242    5.13784664     -4.23479116   -5.90603797    9.86981125     -1.39000775    2.95962937    0.11378581
    1    1.35440382    6.22399265    5.89262380     16.31602222   21.01963837    3.52159350     25.27038666   24.31844645   17.53391526
    1    0.44026383    5.22423114    5.66567841    -13.09045819  -13.80210335   -7.91901699     -9.81495398  -26.61732825  -58.01566780
    8   -5.00628903    4.77143255    2.29567427     22.39602641   -0.39850253  -18.70784745      1.55201679   -5.63484650   -1.53537029
    1   -4.58029440    4.65549698    3.19084675    -11.68691991   -5.77418708    5.30737327     -7.13068483   -4.37157804    8.99031218
    1   -5.97149563    4.69535606    2.39262653     -7.86210062   -2.11449749   14.92207459    -19.35440052  -21.50241632   -8.74255187
    8   -5.00517329   -0.23113692    0.83397428      1.70386279  -11.31882576  -11.55357583     -0.92712235    2.63710231    1.51506552
    1   -5.12643859    0.51624685    1.46759237     -3.29846236   -0.45019299    8.45231288     10.98165802   -7.29025518    9.21469173
    1   -5.65048912   -0.92355364    1.14675547      0.14932973    7.44106451    0.60763420      4.21354410   -1.15973561    5.81671984
    8   -4.79792757    3.08297951   -2.99462732      1.86702654  -12.91958363   13.23023096     -4.70405822   -2.46644792   -3.11130530
    1   -5.53882490    3.70115548   -3.24876972      2.02463538   -7.26823043    2.53405064    -26.15830853  -14.92599026   -9.57764363
    1   -5.20227706    2.48949024   -2.25893645     -4.71742135   18.97190081  -19.39422454     -0.21073611   -3.10452181   -9.91937990
    8    1.50517656   -1.70616141    0.51815507    -43.70722045   10.73594145   25.97029632      8.91317335   -1.81108011    4.03496915
    1    2.35393568   -1.59237374    0.91725796     23.47055514   -3.04478638   -2.36214558     -4.49361092  -27.09206414   -0.85707874
    1    1.68033121   -2.11635340   -0.32480969     13.17702368   -9.42760885  -21.28695172      2.70792712    7.47002726    3.96368752
    8    5.11818095    6.30489525    1.48448800     13.36557221  -13.10018387  -24.39452519     -3.27327739    2.67859996    4.87069251
    1    4.46127500    6.50039099    0.77615866     -2.13542672   -2.64743443    6.87546043    -26.17290256    1.30238664   16.32918108
    1    4.83400538    6.86956482    2.18133106    -14.53202402   17.24516453   20.84521694    -11.12095794   32.95355717    0.43005146
    8    6.24720047    2.08101323    1.91304531     10.78183333   18.94166534   -1.09433942      4.27258739   -4.12439402    8.78431416
    1    6.47707113    3.02030945    2.22060442    -10.22901089   -8.02029312    1.93054280    -11.88976277    3.59963720  -10.29908473
    1    7.12655110    1.82059893    1.62673788      2.54614786   -6.60156040   -0.65184488    -36.71001044   18.52646266   31.77016356
    8    5.43050286    3.07410693   -6.96179187     -5.54936891   25.68559835   29.17569026      1.24081949   -3.00850531   -2.03369711
    1    6.24508886    3.57354111   -7.30603791    -11.97081670   -1.56648134    2.18741601    -16.66355895   13.55863356  -23.57588475
    1    5.02321755    3.74972758   -6.24586918     21.32379645  -29.42783384  -30.34412077      1.30934200   -5.47339871    1.38177689
    8   -5.92218880   -7.32779652   -6.37304304    -11.41286889    5.79591331   15.31061921     -1.19735408    1.69699601   -1.86099191
    1   -6.80895428   -6.86114753   -6.39575568     17.46114139   -7.79870253   -3.86768296     15.29117713    5.29064854   12.28327501
    1   -5.62604940   -7.12704817   -5.42281266     -3.98528591   -2.61364127   -7.99613933    -21.82544716   10.19035971    6.37493507
    8    6.29815091   -4.12474234    3.32202072    -25.11339403    5.43680324   14.07327248      1.43940417    5.18605550   -2.87194081
    1    7.21422981   -4.36731027    3.58070170     11.34691172   -3.16815824    0.77976854      5.14999237   13.11914867  -10.09718143
    1    5.82267185   -4.29422450    4.19179995      4.74559036   -1.26558540  -13.78491485    -19.89430893  -11.56089933   -1.03811618
    8    0.62976771   -3.92952007   -3.79722821    -20.25825194  -36.81158975   -9.72000512      4.97438129    0.04489940   -2.70113621
    1    0.21218842   -4.86997703   -3.73878913     17.28060962   26.96028797    7.40263613     -9.11986771    5.55419399   -5.52809556
    1    0.34938552   -3.74564175   -4.74229321      5.11720023    4.63269759   -1.13592296      7.05339867    9.02539769    4.62480787
    8    6.30782567   -1.19960761    3.01994360      4.96841596   15.99004582  -13.52420087     -0.20004749   -4.25990660   -8.35640224
    1    6.16227951   -2.05597394    3.33594177     -7.23044762  -24.67047819   15.48394137      9.44883713    0.76495577    5.18816424
    1    6.71820425   -1.49993542    2.13738391     -1.67863891   11.18721374    2.47297920      8.22884042  -22.31723122   -1.49788797
    8   -3.16312580   -1.47563071   -6.49216808    -10.65388437  -37.74618920   19.85400604     -1.81979493   -4.70391639   -1.63147131
    1   -3.52314625   -2.39114024   -6.19517472     -2.25516377   32.69500854    7.98882341      0.87618268    4.72882068   -9.23957236
    1   -2.88667132   -1.79845081   -7.29965441     14.76433696    1.88876657  -30.80349083     -0.88464430   -5.88012447   -7.28378296
    8   -3.87581032   -5.15007844    7.02073635     16.92625782    2.03206493  -10.32484958      4.62330781    4.84882190   -4.22590096
    1   -4.28003767   -5.73533328    6.37320517    -10.46937100    0.88448112    1.71381886     -4.15275536    7.52608817    1.33441050
    1   -3.34531620   -4.57481833    6.40483787     -3.87048495    6.15953870    4.23811624      0.31669057   -1.53999615   -0.65565025
    8   -1.23010635    7.12650544   -6.78332264      4.43932434  -18.06235870   16.32862948     -5.96166653    0.60304469    0.86277951
    1   -0.97486381    6.41331339   -6.11759413      1.38993549   12.27088401   -5.76953442    -11.88382113    5.24813545   -5.00097640
    1   -1.99298086    6.65066309   -7.17104778     -8.59210612    2.14598017   -9.58534224     -2.21449732   23.02823105  -15.71278095
    8    4.95548947   -5.10776996   -2.35461183     31.12228208  -14.65704123  -14.56787153     -0.61844118    2.94346761   -2.38794484