 BEGIN_INFO
   #
   # This is a XCRYSDEN-Structure-File
   # aimed for Visualization of Fermi Surface
   #
   # Case: Tight-binding calculation
   #
   # Launch as: xcrysden --xsf HICOLM.XSF
   #
 END_INFO
 # estrutura final
CRYSTAL
PRIMVEC
      14.82179830       0.00000000       0.00000000
       0.00000000      14.82179830       0.00000000
       0.00000000       0.00000000      14.82179830
PRIMCOORD
  300    1
    8   -3.09488636   -3.42041865   -1.82236394     -8.27887825  -18.84155478   -1.82092046     -2.76147610   -3.12933581   -3.95709533
    1   -3.09670772   -2.45807153   -1.70029805      7.39312750   -4.55302030   -0.64867471      4.89813927  -11.19461215    3.59496343
    1   -2.18594359   -3.66041635   -2.05097768      8.65285341   12.79304865   -1.00063318     -7.97882131   11.61139483    0.31393083
    8    3.94616487    1.38662437    2.40903529     -7.73882946  -45.03758663   65.29154652     -2.07189289    1.84540375    7.18402326
    1    4.81164512    0.91600203    2.55340433    -10.06599007   17.57622576  -15.46522680      6.61530586   21.17519216  -13.28191212
    1    4.01188479    1.82900144    1.62619234     25.43538035   32.60496588  -61.83614754     15.48082818    0.88605413   12.52323681
    8   -6.48536636    4.83086971    7.14198776      8.27620472   50.61247550  -14.40822047      1.08455526   -3.65866480    2.41781510
    1   -6.58276065    5.75454213    6.84063134     27.53150868   -0.39306339    6.76459813    -16.38310668   -3.56439779    6.25946175
    1   -7.35719299    4.59516783    6.91382037    -34.57390651  -39.62638136    4.91885367     -9.83359572   41.05777430    6.80893710
    8    1.00900469    4.09338728   -4.88990566     20.04031043  -31.00683763   32.69139189     -1.92473535    2.64113432    0.05953133
    1    0.57259578    4.16814537   -5.71755462    -21.51659654    7.29256149  -38.11579351     10.29883673    0.53835949   26.70234951
    1    1.20684474    4.98519403   -4.67967351      4.13905747   24.93444271    8.60946574      7.81316229   12.03611654    2.72035348
    8   -2.20125730   -7.09489303   -2.90413175    -15.13004336   28.92397925  -17.63829851      1.64137691   -1.42910790    3.85269268
    1   -2.43691575   -6.40510137   -3.59159354      9.52601431  -21.82259261   18.06701784      0.59183790   12.13295927    7.48973542
    1   -1.32375094   -7.36021939   -3.18731438      6.17460582   -8.76500172   -0.33930903     -5.30080118   10.09362150  -31.97430609
    8    6.96045711   -2.65459533   -2.07640919    -35.57948774   19.61074950   11.56611678     -3.81822204    7.48315022   -5.71991208
    1    6.33011337   -3.29519578   -2.34742886    -34.31530362   -6.97400947    8.95576849     17.17130697   -3.61026167    8.69562740
    1   -7.14896839   -3.01239268   -2.55196656     61.15941025   -4.22266440  -12.02241623    -23.93777973  -20.57926768   19.06592355
    8    3.05318292    1.17488100   -5.77837973     -1.98551160   18.58456038    3.37614543     -3.48695556    4.76670483   -3.38588370
    1    3.56319502    0.92061111   -5.00074676      3.93116518  -16.27017741    7.42945726     23.34130775   32.59499105    3.71618883
    1    3.20311896    2.12341702   -5.76017110     -4.87458310    1.62783172  -10.10081363     24.41735063  -15.07166195   12.95410802
    8    0.56771515    3.45195550    5.46992629     41.54198460   -4.08110863  -30.01097310     -0.16583649   -2.30506020   -4.72076186
    1   -0.00612608    3.53965351    4.72850322    -62.74186441    9.60119657   -2.91604622     11.18404858   -0.81760555    0.96017638
    1    1.30617115    3.24339749    4.90595401     32.14456321  -12.64968562   26.56509600     16.48809993   24.31960103   14.47943186
    8    6.50990946    2.25067292   -2.10093217     -6.23904687    8.67951651  -30.88223645     -1.10175427   -1.83290969    3.01622412
    1    6.38455631    2.83287676   -2.89072143      4.74420193  -13.39987276   14.35275559     -9.21838770  -13.22138998   10.17155780
    1    6.03365114    2.75171369   -1.42961305     -4.03843347   -2.71995874   14.70712591    -38.01745924   -2.37635637  -22.41828732
    8    6.21224968   -4.46384538    5.19552283     21.52427001  -24.10649894  -38.12386169      0.96468257    0.05135041    4.17653176
    1    5.68495061   -5.28604113    5.21161504     -1.67982178    9.74221587    3.17996808     -7.71780869    9.87932083   -1.18180125
    1    5.81481146   -3.90576453    5.82642935    -16.31028722   14.83972744   30.94474115     -9.83217470  -26.98517801   -3.39680819
    8    3.19416244   -5.66068530   -0.03203347    -15.22745758   44.77691688  -59.77356613     -0.24715112    2.42833672   -0.23434972
    1    3.25028167   -6.41531709    0.48588063     21.09220055  -30.42578821   47.30416594      6.77455487   15.52075464   14.41866089
    1    3.75870133   -4.93120348    0.34526032     -5.10240701  -22.69494758   12.46174342     -0.55348127    8.86132497  -30.19344988
    8   -3.07461491    1.43865735    0.53521879     29.70335357  -12.23401716   25.56153304      8.58644125   -0.40436182    3.33332126
    1   -2.65635708    0.96150446    1.28982865     -6.86248752   12.52263528  -21.48256175     11.89760256   -7.65877703  -28.97585663
    1   -3.99655704    1.27395823    0.69782442    -23.60935809    3.87480760   -3.74399846      6.48454833    6.40853584   12.94053323
    8   -0.21935146    3.65551061   -0.42283151     11.93097600  -13.70016774    2.39599115     -0.69285307    0.68705236   12.01802535
    1   -1.04638857    4.09260465   -0.19815913     -7.48745199   -5.43996428    5.10605055    -21.45675613  -21.37629750   12.77123989
    1   -0.22565686    2.79972702    0.08909043     -6.20236866   18.76640154   -7.12065019     -9.73663585   20.55804299  -14.01013021
    8   -7.10990714   -0.21371245   -5.96169550    -33.82754470   94.79324538  -26.53967854      0.82969572   -5.40885492    6.91946580
    1    7.16638664    0.18887483   -5.26606676     10.54254194  -32.57991643    9.70447348     12.35757003    1.55650027   16.82429461
    1   -7.20715046    0.59609376   -6.58858151     24.43256664  -56.65113585   10.02419969    -10.72242723  -19.97235092    9.06914898
    8    5.63095312   -2.25636264    7.24745173     23.75510097   61.22364334  -46.29209825     -2.13272400    8.95302566    3.23561923
    1    5.48786652   -2.01222284   -6.67938846    -19.38873522  -26.13883229   53.71440140    -18.67857126  -39.55916017   27.59649044
    1    5.82328186   -1.33046298    6.95756020      0.59499255  -34.45437417  -20.52737757     12.35519495   -9.52523915  -43.90908564
    8    0.30886769   -5.73256855   -7.41007355     17.10273438   24.50453805   11.50238896      2.79672794    4.78098411    3.46899917
    1   -0.21741035   -6.51233083    7.38189259    -30.57926135  -25.89166138    3.01038062     27.35456376  -22.06248545  -36.80995838
    1    0.96278969   -5.94500306    6.76536265     16.31161182    1.73413136  -15.78527257    -16.97993167  -30.70383763  -24.40378952
    8   -4.48713718   -5.56484805    4.67161368      4.33979579   -0.13431076   -0.06128243     -0.84827212    0.68718436   -8.20060458
    1   -3.95507312   -4.91338391    5.15147053      1.99180555    4.48926711    0.25157109     28.96284383  -32.92782287   -2.84299481
    1   -4.11197758   -6.40757993    4.98218611     -3.08425879    0.08700023    0.27017066     28.11891476    8.38929948    2.40741295
    8    4.61939334   -1.78649531   -5.20172555    -20.41504355  -22.41428927   -1.67139447      6.64542232   -4.44479945   -3.97106528
    1    3.71535789   -1.91116867   -4.92483967    -20.66252032  -31.52898621  -14.04854845    -23.83888733    1.35426054   -5.01452026
    1    4.71850669   -1.00901854   -4.73570987     36.90023894   55.93703435   23.39927931    -34.52034083   10.83878110    2.58454547
    8    0.38747630   -2.49724712    6.75862212     20.19910658   33.14505011   23.09328383     -4.31337947   -1.51616838   -7.31499521
    1    1.10372450   -1.80654685    6.70095427    -24.71595420  -12.63691976    5.46663546     17.45840260   -0.98963334  -15.36366170
    1    0.45541390   -2.90357110    5.92067362     -0.49008420  -18.52725960  -26.36764968     12.57369971    0.71697299   -3.06948775
    8    0.45953533    1.50201088   -4.43484952     64.06151664   20.79776098  -51.29345699     -5.19246384    7.25283994   -4.46196066
    1    0.64221691    2.46237935   -4.46256618    -25.50514212    7.96430626   25.87840394      7.33565965  -27.99691114   -2.43934275
    1    1.19337520    1.30494834   -5.08684363    -32.55866179  -29.99305985   26.13702874    -19.29981843   18.21533774  -10.78917602
    8    2.50282462   -3.77721218   -1.85236644    -53.35524263   31.62180494  -97.25284054     -5.93274945    1.42993186    3.28813859
    1    1.84797196   -3.82639806   -2.61858137     47.61776931   33.32697712   18.89496612    -11.89305613   -6.32506609  -16.21743333
    1    2.10947734   -4.46599077   -1.42492130      4.67726201  -54.36144742   70.39617397    -10.45213891    2.46964420  -21.73218104
    8   -0.35729702   -6.80562817    1.10120012     25.57584498   15.14901010   52.93617274     -5.00517457   -2.24388391   -7.37169455
    1    0.35476051   -6.88537138    1.81087758    -21.52041746  -11.25119156  -35.82254763     -8.45080569   -8.85002378   -2.56775662
    1   -0.80413401   -6.00974352    1.45077699     -5.56558889    0.03334716  -18.14873938     11.32441598   -9.50337697    7.15137965
    8   -5.58649751   -3.94956840    2.74333231      2.32244845    3.13550251  -36.17133926      5.14564089    3.40000270   -1.78823010
    1   -5.20939071   -4.23353284    1.90410799    -15.61446481   26.11403416  -30.24872667     14.11208783    0.86439587   23.24850540
    1   -5.17554286   -4.62866670    3.21473752      6.97444784  -27.65164187   63.16632110     10.18443185   26.12549450   16.35508918
    8    4.55476821    0.45761965   -3.55324906     -6.15094545  -20.26841194   22.27292127      3.20805137    3.64740745   -0.16362108
    1    5.34338525    0.81417949   -3.11666220     -6.73561754    3.72767117    0.87623699     -0.73364299    7.94062512  -30.23783824
    1    4.13118432   -0.09752084   -2.82409193     10.61537661   18.06299954  -21.70013702    -11.54427931   -6.75020948  -14.50312339
    8   -2.90235840    4.40867213   -7.05721452    -35.87223385  -30.57397991  -16.70528702      1.69632917   -4.45929400   -7.38844637
    1   -3.68030328    4.01765514    7.30572413     14.49278886   20.90689629   -1.65886789     -2.04448090  -11.62336050  -15.09029348
    1   -2.81104482    3.72782114   -6.38225465     17.98346249    3.38840924   20.61669037    -22.32212041  -16.98895643    4.29835949
    8   -1.20462760   -3.02711243   -5.66118406    -47.56617117  -49.99018226   49.15283774     -2.46725599   -4.55596393   -3.14723066
    1   -0.60100426   -2.98184170   -6.35474790     36.06979381   -3.00729094  -43.75441385      7.55239833    4.29130388   -9.67943195
    1   -1.43102359   -4.00830706   -5.57561044     14.82379589   39.91796063   -9.65258558    -31.28629725   11.69150250   22.24253518
    8    0.59523993   -0.21994477   -2.21319721    -19.00916428   12.56016864  -19.09913780      2.60960495    2.75563267   -5.92394494
    1    0.74392344    0.31769759   -3.00443275     16.96781728    2.27653975   -3.51934306    -12.81455949   -8.03744322   -3.55035944
    1   -0.38079953   -0.23626037   -2.29197273      0.82094380  -14.00908274   23.28523266     -3.44073697   -4.58175129    5.00697001
    8    0.14962782   -0.67169233    2.67876861    -75.30049098  -24.50225841  -27.62477613     -1.18371932    4.13306676   -3.90501610
    1    0.50966387   -1.39664166    2.24257496     69.64123643  -25.43284498  -14.32589530    -47.91926589  -11.82021991   -5.98844412
    1   -0.75941815   -1.03652292    2.49160994     -0.91140065   46.14421013   32.55446039     10.71746720   -2.38419849    0.79063077
    8   -3.89117944    6.86914349    5.74834343    -15.08714314   -4.24589007   41.92223525      3.91721554   -2.52698108   -1.31334372
    1   -4.24877188    6.86284991    6.70443454     20.43890879   30.13874182  -27.03167146     -3.76987293  -41.45611524   13.33928063
    1   -4.21096003    6.01673430    5.52038721      1.42743932  -28.33224694  -33.07475027     -4.01628150    8.66748617   12.93553474
    8    3.23176575   -1.10101040   -1.78094031    -23.31793660    3.93194014  -12.91616848     -6.89607256    1.12838264   -4.79792154
    1    3.22445681   -2.04472125   -1.60509136     12.41982158  -15.27607262    5.40959920     -1.72714561  -19.28984006  -24.18058536
    1    2.33920379   -1.01466790   -2.18484757     10.67933776   13.72023298    7.25325603      9.13967880   -7.00679951   -2.02279889
    8    7.20491616    5.28062805    3.41463842    -41.19812815   18.79423983    1.58743513      2.21974820   -0.56475500   -1.58502846
    1   -7.36990635    5.90876368    4.07461388     23.07870104    7.15113656   21.55613809    -31.23605816   19.95493470   -3.06373490
    1    6.29074671    5.64295887    3.24894590     16.66748053  -22.11840657  -17.64108711     -8.35447098   13.31137887   25.76216144
    8    4.49444948   -6.78029483    4.77184140      2.44879974   -1.66111825  -17.85831983      2.21307606    2.30983293    1.64156561
    1    3.61346240   -6.38692083    4.55455873     11.94065257    1.40313177   10.24396010     -4.16674483    1.48350283   26.80187989
    1    4.44504280   -6.99918997    5.70102533     -8.94604187    3.00951395    8.81905514    -55.30680921   25.67892466   -0.19152680
    8   -0.08473611   -4.41008700    3.95491918     26.57974079   10.00369315    6.77151474      0.02034156    0.19678666    0.70391061
    1   -0.48381781   -4.33226648    3.11424868      0.31127476   12.24371328  -50.07011566    -11.71616119  -17.77127181   19.91436789
    1   -0.83433693   -4.70253442    4.39865762    -26.62156052  -20.63948403   43.99474283    -20.87290574   16.92696901  -28.40631119
    8    7.36445778    2.00204997    7.27432832    -14.75162290  -38.83329421  -34.89005095      6.83159545    1.54184596   -1.42598815
    1    6.81631109    2.78459042    7.33401015     -9.24731110   17.39653677   10.41122205    -15.17727612  -23.88486324    5.79713428
    1    6.94123198    1.53248231    6.48922224     24.88379883    8.82159896   24.32952320     30.29706663   17.96413618   14.80663810
    8    6.82751307    0.24090138    5.17542185      4.55222675  -42.04182172  -25.46599325      2.44620213    8.67923708    4.80137723
    1   -7.38102180   -0.52020408    4.98098572      1.48664451   24.63175116   20.10488550    -30.51469017   -3.30185014  -33.54692237
    1    6.29893072    0.14787506    4.36760968     -7.21894620   21.35199158    6.37238713     38.16595049   -9.39867824   14.36806693
    8   -1.54646609    7.36235003    4.38912134    -40.24986198  -19.67362881   -6.14957687     -4.27346250   -0.87269462    5.77476157
    1   -2.46037051    7.18796195    4.78266488     39.42134973    8.19888841  -10.96403256      1.06798579  -21.65022410   11.80203121
    1   -1.60716929    6.93733681    3.50445053      2.34515030    6.97871436   16.05450202    -22.66877302  -35.39945668   28.66203030
    8   -0.19557010    4.54257327   -7.20060360     10.35823312   53.26844500   76.34253213      5.74494767   -6.32983008    6.41919025
    1    0.26285601    4.15603186    6.90191648      0.19270633  -34.98925242  -48.41414534     -4.46226023    6.19998150  -16.91635897
    1   -1.12705177    4.36843754   -7.31566344    -19.26714491  -14.29064748  -17.56351275     -3.50834676   -8.92627306   11.64603350
    8   -2.18412944    2.32945440   -5.18233371     19.40723067  -23.89771502  -22.93523899     -1.46855120   -2.69504048   -2.64335002
    1   -1.23916629    2.11251322   -5.06660560     -7.27457228   13.07956369   14.93025458     23.36542533  -32.53425981  -13.02301386
    1   -2.45891990    1.51652253   -5.63260728    -14.43157121    8.77800946    9.43875119      5.49495988   14.08512031   10.20402562
    8    0.11108905    1.25738441    0.75329905     -2.05681336 -104.76202195   51.38502731      1.16591447    3.31274871   -4.40205180
    1    0.36756674    0.61006712    0.08319057      1.07120704   27.39487183  -25.69236652     15.47534635   -9.89229875   -8.02893735
    1   -0.00378941    0.52557679    1.48369989      2.07581534   76.94808500  -26.52331682      1.73841169    8.52524198   -4.32079929
    8    5.43455447    6.30806367   -2.44900455     17.63019501  -11.83216716   34.83849546      3.97194067    0.54107920   -0.55474972
    1    5.74792807    6.50043973   -1.52602664      1.10238330  -13.96499999  -16.13327212    -32.35673631   -2.75791977    4.28897087
    1    5.20730891    7.17796336   -2.72905827     -7.18773461   22.70969966  -17.70902679     -5.41817361   22.34324650   18.13635531
    8   -4.65431229    1.78690506    3.32255084    -33.09693355   18.56941433  -22.99459684     -1.67215880   -7.33230651    4.88810207
    1   -4.36869860    2.32176692    4.07454991     -4.46567252    1.92063049    0.19005282     17.13728011  -39.34058534  -17.54453834
    1   -5.38889162    2.33145784    2.89936097     36.11812613  -23.14570189   23.60904314      7.79553954  -11.26125763  -28.98392287
    8   -3.98994117    4.39405013    4.30535767    -25.16360641   -0.78736251   38.13218991     10.19224185    3.70264619   -0.41245470
    1   -4.29928361    3.97922063    5.16449637     -9.76444144    3.01658231  -31.02556085      6.49204392   -5.31776627    2.95501523
    1   -3.06147268    4.29736619    4.43191095     34.28194043   -0.70494292  -15.63445006     11.99601137  -11.41251928   -4.88432499
    8    3.46444914   -1.13954032    1.29053858     -7.92227599   62.43192872   -4.52850474     -4.67289647   -7.87100991    1.59572972
    1    3.16057996   -0.60801720    0.53303443     -0.05629988  -33.09380426   -8.06911033     -2.18756065    0.90164491   -8.38098124
    1    3.69632239   -0.36965158    1.85618765      2.64164698  -30.18928494   10.96413697     -0.18848780    6.25864156   24.04509108
    8    2.08454894    3.06817540   -1.56164830    -46.99526330    3.30537387   18.85247575     -4.45290098    9.45766491    9.19062504
    1    1.17488515    3.36786919   -1.22281400     37.82727386    8.76024735   -8.11808049    -12.10122710  -30.41862432  -31.71964057
    1    1.85205173    2.14996502   -1.71146104     17.66726667   -6.97920941   -9.64372506    -28.01568606    9.98849932   -3.58451084
    8    5.85826287    4.08536184   -4.29099930      7.63038492   40.07909850   25.82111367      7.46547278    3.41800333   -0.49038985
    1    6.78250571    4.32314278   -4.48830793      4.78406998   -6.99293344   -5.03542465     18.35681016   -2.97955803   -3.45989584
    1    5.60927149    4.87548775   -3.72675151     -2.52402322  -28.10766182  -14.24876928     -5.53445232    3.19662455    5.94284121
    8   -1.66591953    5.75897018    1.82989846    -21.17835920   25.83036573  -30.14560069     -8.31719500    1.07501944   -2.56856893
    1   -1.30416017    6.51663845    1.32047868     16.92835087   -6.42130848   21.29042045     30.97773495   18.69043660   11.09828227
    1   -2.42676598    5.56218653    1.23175032      9.47668531  -21.06930010   19.53210422    -13.06219574    0.96658887   -4.26833730
    8   -5.84597709    0.98435556   -2.71026647    -17.47142405    5.60247165   -1.05592658     -4.23385965    1.09428360    1.47948409
    1   -5.78566549    0.04569076   -2.79661731     17.57558583  -20.99219233   -4.61254412    -10.05495130   -4.31813490   -0.03190541
    1   -6.80185156    1.09732817   -2.60508363      6.65900077   18.57814871    2.50302984    -22.49246207   28.19050320    2.41493757
    8    3.30408212   -2.91927375    6.13438617     47.65169643   -4.43391419    2.43991386     -8.33804003    1.13239004   -1.62139349
    1    2.86442435   -2.07510174    6.33927161      5.46131876    5.50892444   -1.27937104     -6.88754780   -1.27953242    1.53586380
    1    4.28317466   -2.71883274    6.34824984    -51.15864918   -4.06685805   -4.18264569     -3.03290852   18.95487953   15.29906419
    8    2.93154510    6.44456110    0.95612440    -20.35684041    0.90201701    0.89528599      6.01307510   -2.56134174   -0.85559223
    1    2.18046595    6.61578757    1.52546595      1.72756284    5.88440560   24.13311569    -18.11647890  -11.51827083  -10.79070099
    1    2.45710128    6.27081710    0.14925933     10.15952312   -5.66401975  -24.69480594    -11.48364183   12.28662858   30.32085390
    8   -0.47522804   -3.59569425   -2.95395940     -6.72730214   -7.25199365  -52.12820326      1.55618769    1.27147275    4.54585902
    1   -0.05542816   -4.30992918   -3.50788299     -7.17731297   20.37121394   19.01064597     -6.27779460    9.90636900  -21.64073465
    1   -0.87566336   -3.03596020   -3.68175589     15.82862758  -12.52225508   29.56744621     -4.08952114  -13.52373031  -30.10629641
    8   -2.81724473   -3.67896291    6.03439396     21.60839468  -19.96991691    6.21130998     -2.01835488   -3.75247018   -1.07406853
    1   -1.84718981   -3.63921998    6.25812121    -34.27704634   16.12081562   -7.69724422    -14.53306485   22.76475170    1.82239815
    1   -3.12043442   -2.75066127    5.86787769     15.86231691   -4.22253864    2.02631880     24.65852569   -0.09076958  -10.01680432
    8    2.28272934   -0.46519066    6.55772981    -11.38194520   56.31246657  -33.52801581      0.69785907   -7.31087502    0.37683542
    1    2.43059297    0.32446671    7.08811969      9.43476972  -17.64502841   36.42340458    -16.39921431   17.32964672    2.77030999
    1    2.10058928    0.06674236    5.73797298     -0.80236178  -39.54261348   -5.28884533     13.79251754   18.21003344  -25.12022261
    8   -6.91072386   -6.58107575   -2.29516563    -39.69559563   -2.84967816   15.81705324     -4.96855133   -0.31452096   -3.77060391
    1    6.98678600   -6.27040012   -2.37688877     13.45782988   14.21354301  -17.44715031    -30.06222830  -13.31098480   -0.96393313
    1   -7.07250172   -7.14785328   -1.52278990     25.87527226   -3.45062497    1.48082623    -17.81068169   -6.12299186    7.12471515
    8    4.50488164   -3.54833204    0.93080653     -5.99468013   10.42320024    4.35446386      1.36797832   -4.52602808   -3.07737787
    1    4.12105406   -2.68317529    1.14700003    -22.46017236    3.77120447  -15.59509920     41.28383133   22.36698009   17.07525140
    1    5.26086710   -3.46675302    1.49395711     29.89952181  -18.67512091   12.14925858    -67.45942083   -7.17933753   -7.39351228
    8   -2.20610726   -5.73961075   -5.30166552    -27.63158074   -8.98910179  -48.39557853     -2.39561314   -4.83282829    2.17753052
    1   -2.97341408   -5.34710078   -5.80174133     13.37419030    5.48506420   28.61411687      0.52625537  -14.88745378   10.70356670
    1   -1.99537605   -6.46492859   -5.93947085     11.85385787    8.01248704   20.38632741     -2.61896665   -2.59714533    9.48546634
    8   -5.66888447   -3.91324794   -2.70388867     32.92152069  -22.40600140   -9.60182620      3.66224456    9.13008847   -0.51048104
    1   -5.96463894   -4.82959740   -2.50073686      7.75217918   12.88772828   -2.04051585     -2.55199375   -9.85177959   17.13064747
    1   -4.66590434   -3.97758178   -2.71851856    -37.90788426    4.45948687    6.38979489    -16.82182483   -2.97290959   -8.54227748
    8    6.62376636    6.94364381    0.01610658     21.87809353  -18.14923900   -1.23798576     -1.54336101    8.40566456   -0.76031466
    1   -7.26681068    6.63443457    0.15147839     -0.62980600   14.86649134  -23.76726448      2.53622102  -22.12203148   -0.94508505
    1    6.34084014    6.77151186    0.90337271    -34.87260268    6.22549888   17.77608258     29.62755749    8.88258124   20.17283232
    8    0.83095334    6.67611474    5.61121358    -37.54385896  -16.96616589   -2.63736966      0.03544543   -2.07712657   -0.62439675
    1    0.76426230    5.81779406    6.05112043      9.05112882    5.05581447    2.51661189    -39.90637342   12.05335455    2.54240161
    1   -0.11064647    6.78394404    5.28932405     26.34828392   12.12901050    5.74730484     24.84899049  -47.15687270    6.57852348
    8   -5.63542590    4.45195343    1.95367624     57.43329453   -2.71521991   37.08554251      2.44021717   -0.34257448    4.92154881
    1   -4.93947925    4.54945662    2.66747650     -7.43169959  -11.81914487  -33.05463876     23.45674566   21.71088183   -7.49846623
    1   -6.37738472    4.71902621    2.48955666    -43.87815624    5.00665003    1.52818994     -2.96265027   -1.56726043  -31.56513542
    8   -5.29682235   -0.53934768    2.22403538    -13.15108101   -4.81859189  -74.04468996     -2.87939683    0.69742827   -2.98249601
    1   -5.10561205    0.31139718    2.65684432      0.42497017   11.13390920   -2.14481834     -8.78007735    9.30320558  -16.41338240
    1   -5.55950276   -0.29166984    1.26283556     13.58957158   -6.70596068   68.81545684     19.58019523   20.56370618    0.59031095
    8   -4.83404189    3.64422278   -2.44937679    -10.12320253  -57.88422422  -78.82509926      5.21501872   -0.03759282   -3.26307447
    1   -5.17461773    3.84586049   -3.34956228      2.81445655   39.02315393   32.54740703      6.66039598   -0.92164047    6.32049883
    1   -4.74697925    2.68076438   -2.68920275      6.69618334   20.01306156   49.89150824      8.30544460   -0.37003030   -5.40847930
    8    0.47123302   -2.31985144   -0.00451855     17.56331711  -10.12424321   11.72619099      4.78510014   -5.61500246   -6.84798096
    1    1.36989557   -2.59143524   -0.23355130      0.05266089   -5.92740961   12.78855466      6.68387308  -12.25720092  -17.52126071
    1    0.22190288   -1.92392136   -0.82248789    -20.55449132   14.63493597  -20.49157046      2.23982085  -25.01104974   -9.82852291
    8    5.06218080    6.57444575    2.50221992    -69.61945291   51.02936885   32.12910994      3.81677574   -5.89363273   -7.30483300
    1    4.12384541    6.56551095    2.15606514     37.39515777  -27.44223066  -23.02859395     -8.33342832   30.94643155   30.36110270
    1    4.84974787    7.28598603    3.17649534     41.11206140  -24.42049553   -5.55239299     -9.94494759   33.06172566  -31.24445356
    8   -5.90521124    1.98870562    0.61691445     -0.99180286   30.00869846   -5.92667952     -1.62979841   -0.02563106   -0.09538800
    1   -5.78043039    2.85513202    1.08543661     -3.34268036  -16.70170794  -12.45800389      1.46151019    6.70949693   -8.44369530
    1   -6.24142700    2.27793601   -0.25734714      7.07102915   -8.81297463   14.74951302     -5.97992470    0.13730288   17.80282093
    8    5.73076135    4.06280251   -6.99856862    -43.56803473   22.85602516    7.87618022     -0.27548307    0.20275437    4.62272669
    1    5.77878017    3.98808627   -6.04014620     20.95048055  -12.56893431   14.15130319    -38.05091634  -18.74709958   -3.32404679
    1    4.88084750    4.54434594   -7.02065723     16.82975348   -8.30125528  -24.90243352     -1.91033680   41.01028490   23.01274690
    8   -4.73796106   -7.37693804   -6.79125519    -21.26219003   14.74082763   87.02594475      2.59734263    1.73749385    6.43718456
    1   -4.95779640   -6.42322643   -6.71132237      6.64016032  -12.23521733  -14.30024834      3.67675509  -18.06242866   -0.27827151
    1   -4.85742411    7.18293103   -5.81093618     10.90619738    4.38164336  -51.74714388      4.26132638  -21.19599118   14.09946133
    8    6.49889022   -3.10826264    2.76789607    -19.84039232   -9.29207115   18.31454107     -1.32838091   -1.20368692   -1.27538512
    1    7.38793974   -3.26997661    2.44136530     12.99163591   -9.35666353    2.25204167     15.49080390  -17.57938261   23.82300150
    1    6.41798623   -3.69946128    3.56948937      6.20152987   13.78225525  -20.29594949     30.24434059   -9.39126914    7.23584058
    8    0.92646448   -5.26273573   -4.71105986    -19.81054802  -50.86951586   -4.90733906      1.31510896   -4.55027832    6.23041256
    1    0.50801051   -6.12300837   -4.44474849     16.30821626   28.48696291   16.39708393      2.25840620   16.05583900   -9.00926562
    1    1.00943616   -5.48754362   -5.64947016      4.34200757   23.62312809  -10.60433313     18.01215886   15.45884611    4.47655013
    8    6.06257406   -0.31803641    2.37250432     13.15322150   54.07846993  -19.92835816     -4.39331258    0.33921374    0.40148622
    1    5.89872551   -1.19533827    2.54792567    -11.56850518  -65.08891239   20.71916252     -5.22720692    1.80042452  -11.88026686
    1    6.54690622   -0.40587376    1.53213994      2.93397371   11.90631428    1.78760166     -5.67360984  -37.81874641    8.03724033
    8   -2.73831386   -0.97174142   -5.32833742      9.95622677   25.67355120  -10.66212639     -1.63380066   -0.59103716    0.57031900
    1   -3.45619554   -1.31097618   -4.78650502    -15.83840908    1.65621596    3.85802863    -16.72209808   -0.07039630    1.36031013
    1   -2.23286020   -1.77051506   -5.51822816     14.19429920  -10.53075346   -1.14695908      1.62225106  -27.53491115  -24.69709988
    8   -4.30201711   -4.37389663   -6.58713826    -13.67771145  -12.36427353   -0.97812289      3.47866923   -2.59443361   -0.43526255
    1   -5.13074572   -3.98238486   -6.93878489     -8.71658442    2.46233520   21.22516461    -18.83000405   16.70904308    5.35739454
    1   -3.78057368   -4.23222635   -7.36397358     32.74480314    1.13712657  -14.27612844     -3.93871805   -3.79423464   -1.00704102
    8   -1.48842991    7.08112202   -7.22192492     15.42790713    9.78440159   17.31002795      2.85700725    5.37421694   -1.85478175
    1   -1.06850639    6.23818186   -6.89295777    -31.96274237   12.86471346  -19.00332559    -31.18813030  -15.09116369   -3.85300890
    1   -2.38923863    6.88760077    7.27867197     14.38197018  -22.36296392    6.62574327     19.04779226  -45.35214877  -17.75515647
    8    5.17538313   -5.58933196   -2.34281803     -9.20898279   -4.51600283    2.11248658      7.60237971    2.07839102   -0.64462973