 BEGIN_INFO
   #
   # This is a XCRYSDEN-Structure-File
   # aimed for Visualization of Fermi Surface
   #
   # Case: Tight-binding calculation
   #
   # Launch as: xcrysden --xsf HICOLM.XSF
   #
 END_INFO
 # estrutura final
CRYSTAL
PRIMVEC
      16.25241150       0.00000000       0.00000000
       0.00000000      16.25241150       0.00000000
       0.00000000       0.00000000      16.25241150
PRIMCOORD
  300    1
    8   -1.50695301   -4.38571926   -2.57257353    -17.71829530   23.94435015    3.82527181     26.41702488  -12.62611674   11.73424722
    1   -0.62174627   -4.20082077   -2.26255535     12.53904989   -8.55495136   -1.67745684      0.22375293   27.55166301   52.56406991
    1   -1.47707603   -5.22501649   -3.01394659      7.99417109  -12.14825062    0.34962662     14.30575013  -23.07825107   31.65719065
    8    2.57139397    1.75111381    2.74238353    -39.69493916    6.41771079  -43.93654385     -9.69087807   10.65848020  -13.84745175
    1    1.70607444    1.88088762    2.27182807     15.35843447   -4.91346256   43.10788060    -29.12004626   31.75825379   53.07500673
    1    3.11885932    1.86444419    1.97989109     28.68756756   -4.08289778    3.55538384     10.05734145  -30.56533026    1.63098498
    8    7.40218344    3.22365274    5.21178903    -45.34001579   31.44243475  -10.33920655     -4.06387715    2.54009037  -15.26304111
    1    7.41955230    4.18288304    5.09279006     38.15069295   -1.75144446    6.83134276     23.04380779  -15.23841597    1.26501826
    1    6.43800562    3.16454207    5.18193429     11.33580227  -34.31739363    5.65322343      4.47977358  -38.00937577   -1.32895255
    8    1.18199165    6.31488653   -2.65709923    -15.38811093  -31.52596096  -28.92104540     -4.38035726   -4.86096642    2.68513569
    1    0.77064734    6.01609899   -3.47032904    -21.77362908    7.46572861    1.33615500     -1.40975370    0.17842063   -7.19719450
    1    2.08467225    6.02438187   -2.87321316      5.99578373   15.25446223   24.54241835     -0.87089437  -10.88523166   12.58524955
    8   -3.72570103   -6.59443471   -4.32777414    -14.65902909   -1.45777719  -52.90308654    -12.04041724   -3.02551340   12.27631253
    1   -3.69253578   -6.62443877   -5.34311317     10.49605473   -1.92609339   64.18862998    -14.20051221  -25.55516913  -19.89793675
    1   -2.87402020   -6.93178952   -4.00235319      4.32802954    0.06978294  -12.02277847    -41.68967422  -23.52258596   23.47643197
    8    5.69265052   -1.74475610   -1.15869324      6.94311770  -34.03978402   30.55173660    -16.71232938    4.81114834   15.04471698
    1    5.72534035   -1.24662718   -1.94875381      4.84011073    8.32667741  -31.42658184     15.95583967   13.15049896   31.35075631
    1    6.08213581   -2.61627926   -1.37027339     -7.24545549   20.61238302   -5.75419837    -53.98344860  -16.91635594   31.29812311
    8    3.67623204    2.46372150   -5.60017743     35.07656803   10.49705412  -49.70710695      1.21277360   -4.62797197    0.14597446
    1    4.62295025    2.24973355   -5.90339066    -55.66893366   -1.88454616   37.09185028     -2.85803092    1.35582621  -40.89215817
    1    3.52865925    2.13292450   -4.72910455     18.58554952  -20.13867940   14.55365610    -26.44610096  -63.01570269  -33.29089001
    8    2.34255359    6.91049375   -5.45870299    -60.89662727   -1.98305628   39.03934779    -11.73254417   20.26340728   23.81725075
    1    3.18212896    6.48036205   -5.30523460     17.52864729   13.13883369  -35.34283877    -28.72449942   38.06590657   23.77507452
    1    2.31382567    7.48924750   -6.22758117     42.85123437  -11.15277339   -8.99417479     18.06221829   -2.69083443   39.69126516
    8    7.36889113    1.00882536   -2.30441082     39.07215624  -40.25534570   -0.52340545      9.97801435  -26.43839315   11.03033626
    1   -8.05277505    0.45167950   -2.27075231    -42.65164740   18.09772414    5.67194596     -9.01908818  -78.16863754  -36.95698729
    1    7.69268244    1.74989475   -2.78622093     -1.53437173   23.90779824  -11.32818410     -6.19285454   -1.62739862    9.60535711
    8    7.12025409    6.32790679   -6.91585544      5.13879370  -40.74867233  -35.33233807      6.72675217  -35.54045479   16.05803110
    1    7.33441791    6.43048453   -5.93034072    -12.26922935   17.21454403  -44.80007017    -30.61538851   -1.69639960   30.26066739
    1    7.10761800    7.17192334   -7.38743794     11.98939146   10.87465380   36.51975518     60.10080213  -82.65214823   16.60197527
    8    1.72894871   -5.29765301   -1.80990997     11.84892980  -44.92786633 -155.92214834     -5.71440361    4.87419823   15.86849992
    1    2.12561845   -5.14012920   -2.84453778    -41.24895661    7.74114491  179.28729462   -131.27979758   21.07823242    7.90143986
    1    2.00797531   -4.67420495   -1.15357813     26.30727627   40.01600641  -23.12018603   -152.15890747 -133.81472071    6.39921654
    8   -3.59024155    2.18772441    1.03539327     41.73444435  -48.50122264   25.36280337      2.96923547    6.24406817    8.38088216
    1   -2.80833909    1.68383545    1.42288763     -6.57659656   38.45700711  -20.87020533      0.27032503   -3.53923887  -48.03418533
    1   -4.23854068    1.72402566    1.54959274    -32.80695117   10.96020431   -2.17927824    -27.34362137  -15.18461656    3.62605137
    8    1.42144445    4.48031915   -0.31199181    -15.73391035  -32.65683933    0.46094920     -0.02399619    1.29218459   -4.34725202
    1    1.30109283    5.04984661   -1.07231926     -6.25086187    5.31808306  -12.10589458      3.63602055  -10.86906311  -22.00000942
    1    0.90462416    3.64817908   -0.52449522     20.34063839   27.89778444   -5.71228933     21.17048849  -22.22468130   -5.02030619
    8   -6.08345890    1.35855988   -6.64859404    -10.68981161  -14.54572413   38.24872794     12.26744806   10.54568247  -15.17219271
    1   -6.26467317    0.66474611   -6.02773923    -14.09201562   -3.39038023    3.93902432     65.94140995   17.41839980   -0.48448496
    1   -5.16301190    1.44844187   -6.54224742     31.93462402    6.41128681   -5.70116942     15.98368939   23.35838328  -49.68303263
    8    3.11377059   -2.05255277   -6.51899036     91.53706137  -38.66545559    4.93208537     -4.61960187   -3.06267574   19.14042907
    1    3.56890580   -1.20506098   -6.33874350     -8.14578513   -6.01281453   -4.08025957    -37.17266931    2.71072784  -22.18618152
    1    3.79277933   -2.55882302   -6.93839658     12.88663202   -4.17371977   -7.85484807     46.23224040   13.26475529   41.69889955
    8    4.51853628   -5.87399217   -4.93404983     29.40188293  -67.22205894  109.40027234     20.08009645    0.23510373   -3.16430063
    1    4.17818752   -6.80973790   -4.89466362    -11.67957825   51.57789946  -26.14580702     74.39862988   28.45844095   60.36346710
    1    4.02069657   -5.29354521   -5.44198773    -41.01435583   -8.91661588  -33.38840221      4.04344309    7.70030167   45.15831001
    8   -4.10289742   -6.42414143    4.45931465     13.80856980   15.94096524  -24.35960385     -2.41535927    1.18706921    3.22296824
    1   -4.25100417   -6.50832477    5.38795022     -3.46098960   -8.98801057   19.03787593     18.01510065   28.57995981   29.85598075
    1   -4.45360079   -7.20056631    4.03073475     -5.17057262   -9.22002648    8.91927355    -17.00973386  -11.30635374   10.99989520
    8    5.23961280   -1.78173367   -4.60628092     24.31587910   43.52777656    2.67849605     19.16654523   10.26923177   18.69574830
    1    4.42156021   -2.22024502   -4.64796950    -28.53212538  -13.60162694    2.75724694     20.52727489  -23.12104725   32.97105752
    1    5.00125584   -0.84484931   -4.29131458      9.42881725  -36.62904572   -5.70612515     -6.46865937  -19.53107732   45.05668913
    8    1.62948839   -3.32837581    4.03620715    -21.37137721  -20.84312345  -17.17722939     19.79128135   -7.88916232    0.65054132
    1    2.13053805   -2.74146795    4.55601975     24.96765857   21.96047160   21.20727354     -1.10618915   32.70715340    2.75060928
    1    0.84825249   -2.80856759    3.85540208     -4.69993000    2.20485695    0.15056816     48.91772684  -10.15467539  -10.29725880
    8    0.76497481    2.56791644   -4.11238777    -42.26830237   13.92784110  -22.85227223     -0.26567607   11.74230560    2.13018239
    1   -0.11526133    2.82832091   -4.42563399     -8.65755591  -20.82026052   38.82345877    -14.29268682  -53.50632696  -12.94693171
    1    1.13272851    2.94249769   -4.89188378     57.09190935   -0.00662947   -7.70369621    -33.08295065  -38.75637049  -19.24152243
    8    1.22295993   -2.41199177   -0.83679801     23.22268060  -16.31656925    9.10865555     -1.98564943    4.14174529  -10.03851313
    1    0.90125467   -1.58351345   -1.14037438    -20.75484056   11.72477851   -6.12882066    -12.11066604  -26.23453493   14.02886518
    1    1.29853341   -2.31725383    0.12623409     -5.60532362    3.33671587   -4.53391028    -91.90981479   21.91739102   22.48797419
    8   -2.22524209   -7.42337120   -0.46443866      0.77845782   -8.78191913    6.23797140     -1.62495596   -0.82490615   -2.22074591
    1   -2.98518706   -7.09521944   -0.00838697    -16.72869592   11.93469140   -3.89705031      9.16013475    3.73294903   -7.46755894
    1   -1.65497147   -7.69386869    0.27123872     13.28687738    1.22907666  -13.42059229    -13.43361596   47.02871051   18.11110815
    8   -7.01938272   -6.82347006    4.68858801     20.58700576   46.00408642   53.89604076     -0.57908216   -9.28335839   27.24440427
    1   -6.10956348   -6.59858844    4.97466862    -11.57022916  -15.47632897  -27.05810353    -12.96649636   25.77412712   14.02556983
    1   -7.48078281   -6.21155041    5.31466079     -8.64977109  -28.62471504  -36.22577078    -54.75991149    9.69084652   32.39504151
    8    4.65703532    0.40675991   -3.39583304     -2.35928319   31.49176233   43.88414574     -5.74833327   12.02447033   -3.46593109
    1    5.38078969    0.69512250   -2.76797727    -17.11902105  -11.71035381  -24.10320636    -32.66113568   44.32085954   27.12914183
    1    3.84367067    0.47262441   -2.81837541     22.49799598  -10.50828912  -12.90343125    -32.40294332   16.59843953  -11.82995741
    8   -2.44367389    3.74355886   -7.19302459    -40.10083417  -29.13052214   19.82740805     -5.66351212   -4.65760652    3.12427007
    1   -3.25764786    3.61843373   -7.71075427     20.05358315    7.67443897    1.49880671     28.94440041   17.63644214  -41.58754220
    1   -2.62515229    3.22844721   -6.39049985      9.76234530    4.78412287   -9.43653359    -10.28822325    2.25189020   15.19161000
    8   -1.66085085   -0.97119422    7.68509548     32.72547978  -26.67838693  -35.46995369    -29.70667337   -9.84457153   10.61860450
    1   -1.40549697   -1.88738729    7.52840039    -13.02698312   -4.41846412   19.00591189     32.54809230   15.53278522   56.03549799
    1   -1.26125642   -0.58884588    6.88311365     -8.37022308   26.82068202   11.04876999    -52.37867495   14.62218014    3.68324974
    8    0.33817007    2.06117980   -1.21445107    -18.85210927  -20.99468057  -39.80519877      4.33757867    3.45950091   -1.49450748
    1    0.87099628    1.77874528   -1.97802701     10.48092670   15.48615718    9.30196620      9.53753829  -14.99080860   -6.86748187
    1   -0.54622618    1.84176830   -1.59348298     10.28358437    9.92873642   30.18086580     15.84551520   26.11035839    0.80367147
    8   -1.23027876   -0.90501020    3.83645248     23.95737836  -29.52805617    7.25809026     -1.28676640    6.40829047    6.87280751
    1   -1.65118512   -1.55621053    4.40097698     -0.89138378    3.46765534   -0.57652946    -10.77288693  -26.69069065  -19.53915537
    1   -1.97207706   -0.48612055    3.40037150    -12.31338331   13.95564701   -5.94651101     24.92651920    6.14549443  -19.18610993
    8   -2.40472626    6.57600807    5.75729837    -35.50377388   18.86546870   -2.06685733     -1.07911767   -6.65855084    3.39339476
    1   -2.97628978    7.34503904    5.86013527     21.90787073    4.71726346    3.26271224     -5.09083198   -2.95475469  -29.75500541
    1   -3.09725246    5.91316061    5.68005925     19.53886891  -22.36959767   -4.41099179      6.37098561  -46.46126226   -5.25110064
    8    2.81941158   -0.04813135   -1.42310714    -37.94622682   43.71827079   29.05811714     -0.79539594    8.31350485   -5.35957911
    1    2.29732461   -0.81232685   -1.40580657      8.34884188  -56.91475335  -19.75310276    -10.26571900    7.23589061   16.22543467
    1    2.18236481    0.48613184   -0.90954609     31.91201911   18.00385502   -8.28219139      4.32632444  -24.61617221  -27.77533992
    8   -7.43370571    7.23565036    1.94620409     39.52353853   -2.63556887   -1.15211515     -4.28532583    4.59529765   -6.01144662
    1   -6.52460969    6.83705048    1.88727730    -31.21908857    2.93757760   -7.46529325    -13.84716752  -29.81174920  -11.65031884
    1   -7.24265328    8.04890354    2.42130336    -11.52461184    0.40911076    7.17944614    -28.60727541   -9.27260753   16.73088167
    8    3.63520667    8.07566783    8.12512284     -9.59060311   27.25578869   25.05686177     -3.41632048   -5.65351636  -17.87199424
    1    4.51374680    7.97266862   -7.68814326    -22.37685061  -20.44400783  -28.51702342      7.34465906   18.39211070   27.01780658
    1    3.37656015    7.27285903    7.65484215     27.66656501  -16.95841121    2.39180534    -49.66387597  -18.60421337    6.91938950
    8   -0.13591898    7.85430277    0.90692275    -12.69067071   28.42468297  -63.32752667     -0.14479150  -14.80904770  -21.64861268
    1   -0.80833574    7.12735550    0.85532427     37.86307238    7.13878794   46.63837922     21.70428550  -31.88973412   35.53371504
    1    0.32889055    7.94996173    1.73325195    -18.56474771  -38.96183993   22.48449590     51.66327664  -67.53269561  -18.44850596
    8    5.73905433   -0.04112139    7.85399368    -72.66594507   20.11129387  -27.94916334     -7.86946170    2.24884172    0.88780832
    1    4.89921849    0.29472815    7.33234478     83.80462600  -24.85857311   31.88114534    -38.06693742  -26.16881652  -16.12496413
    1    6.48411529   -0.11167251    7.22374735    -12.60203343    4.12416720   -1.81919605      7.05045208  -10.45046360   20.05702113
    8   -7.98373425   -0.49744024    6.31835233    -24.49284471  -32.83944731  -33.69240630    -10.39826388   -0.93412994    6.63693946
    1   -7.20668322   -0.18413147    6.78114625     21.64733400   -4.69418140    5.19037610     -1.11556125  -31.56388699   14.20886833
    1   -7.69417448   -1.27445594    5.75083228     -2.22111434   40.83328089   40.03992738     -6.66036886   21.47081093   49.48882950
    8   -2.02798398    7.47859008    3.00145058     22.92613968   14.83887588   26.14244586      7.14588243  -12.37340679  -17.44934283
    1   -1.89408194   -7.83832216    2.85209451     -8.56981026    1.71737244   -8.20038295     17.15618535  -13.59768606  -12.31452573
    1   -1.57642363    7.38666099    3.87635162    -21.21375743  -18.23112407  -18.09958053    -22.08361444  -22.36450919   -1.13917500
    8    0.04913331    4.85262428   -5.46055933    -23.02357946  -51.45652897   48.79792843      1.43748365   -0.20582026    7.59536923
    1    0.32146149    5.59732139   -5.92710988      6.14802727   29.08621428  -21.23437362     25.38928022    7.74132713    9.51412813
    1   -0.88889884    4.65654788   -5.69276599     21.93741288   16.80900499  -15.32500944    -12.29550123  -34.83261164  -27.60374472
    8   -0.55261086    0.92548232   -6.65781122     12.15112374   44.54517989   -4.35960162     -0.47512795   12.43105139   -5.33921346
    1   -0.75845738    0.87239323   -7.56467511    -33.15823583   -9.20647504  -27.67496839     -1.83176633  -24.86080127    3.46307229
    1    0.40783724    1.01251753   -6.76711668     -7.10877823  -10.47547601   31.13491425     19.69385262  -31.41331273    0.78624717
    8   -1.15729954    1.65259009    2.11696474     10.74895687   61.62974057  -43.15112191     -2.92752146    0.47353147    0.57112958
    1   -0.92675538    2.53782308    1.69588246    -11.73582149  -49.25133852   15.92324128    -17.52580934   21.97932919   22.41697251
    1   -0.91759693    1.82008441    3.01445607      3.58061335  -11.26088255   24.92349050    -16.93616241    2.12076133  -15.92228367
    8    4.90493866    4.68266942   -6.88831336     -3.15739401    8.43522296   -2.39812775    -15.10738629  -37.62707671  -18.65499236
    1    5.58646412    5.33350244   -6.74022613     13.02775414   18.90726331   -9.17363378      2.68932619  -80.13662071  -38.06346507
    1    5.24999695    3.98186048   -6.35902818     -6.04467643  -19.50821984    5.68480727    -64.68226189  -23.48483165   76.09502808
    8   -3.57010582    0.17155777    3.47259001      4.94579053   25.74811050  -27.25559657     12.01014477   -6.11700076    7.61459621
    1   -3.67741271   -0.15528716    4.38399231    -27.90134794  -16.12162151  -16.46831086     -5.88230598   -0.86093218  -21.14919005
    1   -4.24320530   -0.19881505    2.85923752      5.29181991   -9.97512325   43.99746385    -11.55605811  -29.57682658   21.26615064
    8   -3.52248907    3.44842436    5.73367513    -40.58549056   -3.41165132   18.15183678     -0.30323490   -1.30523968   -7.39463157
    1   -4.25081653    3.70048735    6.30202736     21.58003638    8.55961752   23.65652170     32.17689809   15.53535442   14.71391961
    1   -4.07797186    3.20302126    5.00930676     21.79952353   -8.15559919  -35.33026894     19.20043556  -10.01441944    8.12904421
    8    3.16922705   -0.65986091    3.95390695    -11.26628328   12.09094253  -10.55669493      7.63130213   -2.28529958    3.76236174
    1    3.12466811    0.31398852    3.83606098      2.31749497  -13.23267884    4.40347078    -25.27293625    3.65869239   -8.73522894
    1    2.68755063   -0.95065887    3.16047165      5.39510939   -2.49375419    8.68278274    -17.82229296   63.04282112   10.59492982
    8    4.20354437    6.04117938    0.49204550    -38.21276937    9.57567821   -3.75634842     -0.64776624  -10.91337665   24.41591891
    1    5.05271647    5.56165800    0.29013052    -26.44683283   -0.74369964  -17.90451572     -8.31954020    8.25470433   27.31604165
    1    3.48564945    5.76824306   -0.16061953     49.40075674  -10.55610549   24.93660820     -5.40920936   43.15268718   37.15723004
    8    5.31446806    3.99806163   -3.17606395     -2.85830178  -97.00551600    0.96267215    -22.43570686   -4.24304161   11.46448787
    1    5.57971148    3.01366035   -3.10764669      1.79864708   73.44408715   -0.16243738     -3.57949142  -13.35866040   35.08787908
    1    4.37469573    3.88616920   -3.32870088     -0.20036633   20.70275650    0.93971061    -23.53426171   10.71167473   46.07129979
    8    1.03960026    4.13382090    2.28678122    -22.84586495  -67.02999507   93.46419107      7.21462679   -2.02017265   -6.51482787
    1    0.66400709    4.11791311    1.40903000     35.91384166   58.59840239  -25.19345372    -18.47230501  -44.35164303   18.31342561
    1    1.61749267    4.86886368    2.55199510    -13.80434127   11.55842640  -59.24887056    -30.56630171   -9.81107712  -37.19143043
    8   -5.24781970    0.84375561   -3.03751325     14.38151726  -14.11318731   -3.24005849      2.83400625    0.88143508   -1.43384862
    1   -4.68397139    0.12956604   -2.69885420     -6.41303080   23.23284697   -9.02730182     -9.48835165  -10.50411531  -27.96517572
    1   -4.72503028    1.68013872   -2.86865251    -15.58971579  -20.42573738   -1.68165624      8.28482586    3.90217775   -5.65242641
    8    1.71049050   -2.54594061    7.08667192    -11.98082400  -20.98632309    2.91025299     -5.26775782   -3.94022424   -0.06674291
    1    2.50682596   -1.99392441    7.04027630     -1.89903704  -11.83322932    8.18088067    -21.34402214   47.45867828  -18.01970259
    1    1.92480901   -3.35152532    7.61553461      7.59184927   33.74643775  -16.15451719     31.94119952  -15.88646896    2.95729736
    8    3.59705439   -7.18507086   -0.01979597    100.33965146  -24.51841098  -66.31690753     -4.47574589    3.56439203    8.75956527
    1    3.04140190   -6.41014706   -0.03420843    -45.71619297  -25.01181436   48.45368183      3.66934166    0.10710153  -18.07639752
    1    3.45918015   -7.94447383    0.57766073    -53.99810571   43.39929616   16.48158852     -0.95134956  -32.43649095   13.25159078
    8   -0.45793173   -1.42333737   -2.94299120     70.10326304   46.75703961   11.01096672     13.81609843   11.43458010   19.22204593
    1   -1.30719876   -1.71038853   -2.97204058    -65.30947669  -19.66223249   -6.88040538     25.62378066  -27.81029629    1.90071730
    1   -0.50088637   -0.44811495   -3.03187420     -5.45493031  -24.67028145   -7.40073916    -27.48675680   34.31381644  -17.78830123
    8   -0.83940136   -4.16359102    6.76646463     49.12856743   45.70924993  -19.00287054     13.46551958    3.09393395    0.37526825
    1   -0.11203429   -3.43907284    6.51908389    -29.66066708  -22.49275709   27.07858226    -14.19412122   45.84275331   56.92911017
    1   -0.67057714   -4.63988719    5.97414040    -12.36896896  -20.95122886   -7.02898379     -2.49651789  -25.25168439    8.19707989
    8    3.04789030    2.26066238    6.86158558      1.77443335    2.18524870    4.50801133      9.40156943    9.16888846  -11.19808133
    1    2.74903548    2.63562468    7.76680474     -2.21095449  -12.39932474  -30.31633167     20.78799302  -21.51096035  -13.79907502
    1    2.22878647    2.17394702    6.20533509     14.45548602    4.55011985   35.45274453     22.38637560  -11.13835103  -71.90482964
    8    8.05754557   -7.69429938   -5.65912942     37.17866595   51.70393807   -2.49466160      0.71184390   -2.07966944    7.08363459
    1    7.40058570    7.99563376   -5.42973645    -34.95664774  -12.13293602   24.74788539     51.62976971   52.84211708   -7.79726041
    1    7.95090613   -6.80522937   -5.19069245    -10.18690786  -26.52651361   -5.78951010    104.18346335   44.79069820   23.55105804
    8    4.87199646   -4.07109064    6.85118808     97.70079177  -22.68319385 -163.64366408      7.86214131    6.94591059   -1.55524176
    1    4.18016783   -4.01937884    7.01272336   -130.70710374    8.35306438   54.16046057     47.29255643  -63.94500478 -184.83247356
    1    4.53922641   -4.42141527    5.76514569     45.26133249   22.09832237   97.19933496    -55.74879401  -14.50931060  -77.63884153
    8   -4.08046976   -5.32755300    8.04829735     54.84710877   47.47391681   95.89463721    -30.77131654   -7.48782500  -33.83960257
    1   -4.21048016   -4.80254638   -7.20754820      0.74813781  -42.37055857  -91.92097501     40.13854264  -19.53013721   -2.66858610
    1   -3.06107907   -5.13985493    8.01252028    -34.57432125   -9.70270354  -14.00646357    -43.90977202 -187.48964855 -106.85822730
    8   -5.71623266   -1.39559241   -4.98737984     -6.12498150  -32.82744755   29.03519309      7.77282043   -5.63824272   -7.81042714
    1   -5.03530231   -0.87301878   -4.53490720     -6.20815216   11.34166840  -14.50678050     28.95281245  -18.70900046  -37.56718542
    1   -6.06425563   -0.95273713   -5.72792013      9.01170277   12.04812213  -15.47329871      7.86884561  -27.42962938    9.01325426
    8    6.38308416    6.24894168   -4.53703520    -15.18645149   19.79121985   47.95190975      2.69301523  -25.35997958  -26.15317111
    1    6.76797519    6.23625412   -3.57710347    -23.27700733   -7.27344626  -26.26807275     32.74675027    7.33530291  -22.94634494
    1    5.35998956    6.23143771   -4.44628242     35.71695551   -6.44908584   13.61271540      9.58416404   28.10346899  -15.04969422
    8    3.39606456    5.73042289    6.29701303     29.34692446   19.89565888  -20.74746184      7.92653192    0.84662385    6.00072514
    1    3.76148917    4.95607082    6.64223772     -3.11775617  -26.42603097   19.26890651     -2.38364664  -12.34620192   -4.63882088
    1    4.23454678    6.00472314    5.80662209    -25.47824196    7.46683015    4.98037873      0.42465435  -26.89567131  -79.44689732
    8   -4.11319111    4.86564612    3.31316230     40.58889501   11.46190537  -30.07174834      2.78126020   -3.18820666   10.91347338
    1   -4.84051718    4.46127776    2.87811682     -8.98197773   -4.87080635  -11.13509707     41.24984411    2.93531032  -34.09723862
    1   -3.36793862    4.95653304    2.56476507    -37.68955802   -5.60400717   38.89386954     -0.02193849  -25.63038894   23.99809150
    8   -6.52178934    0.39764135    0.88477243     22.52603306  -34.19943428   -2.37508202      9.63736794    9.69694068  -22.21448871
    1   -6.96555356   -0.03169052    1.64437281     -7.71684188   10.13703599   -0.08311126     54.84075312   75.34769521   47.32186765
    1   -5.99454129   -0.39809186    0.55483103    -12.68184357   17.30974673    9.15502084     28.57655418   -3.33404103    4.51437782
    8   -3.00172294    2.52976130   -3.73336409     19.07258468   25.75514113    6.45848793      5.44238583    5.22944425    1.12504316
    1   -2.85671595    3.50707826   -3.46274109     -7.86090397  -31.20279617   -4.55246912    -23.21146390   19.43428109  -28.55789168
    1   -2.49664655    2.01348131   -3.04970832     -9.19698113    6.20759939   -4.74400342      8.62334684    8.28750927   -0.97242064
    8    1.00299618   -1.54416888    1.92259175    -37.20644479    0.58399102  -10.23832397     -6.08322567   16.00211718   -4.98622190
    1   -0.00970464   -1.60356421    2.02257066     19.98348761   23.92790005    0.83841852     -7.54030202    3.32991245   26.47057498
    1    1.12614655   -2.45413696    2.05016219     19.62616942  -25.25723287    4.03814854     -3.01378557  -27.31363712    4.30635201
    8   -6.62840753   -6.22376863    0.30240836    -24.67201823   22.96624372   33.94977880      8.75174803   -7.31876565   -9.05856885
    1   -7.08013633   -5.50830903    0.97906592     20.26902910  -57.61905439  -28.52391481     18.05837012   39.56033540  -50.58157723
    1   -6.71931272   -7.18976284    0.60437905     -9.04326503   27.79916141    5.27866328     70.85260689   40.94599385  -30.84015592
    8    6.72318948    5.65471156   -0.02021689     20.23372582   34.92949877   18.67581656      0.55665221    7.74917852   -6.29625937
    1    7.66158992    5.73121806    0.16000588     10.19626754  -21.82605047   -9.17473515     -0.43034552   -7.83614144   20.82705339
    1    6.56990372    6.49074516    0.48307462    -15.66136143  -10.94226474   -9.08390098    -21.31861219    8.91036365   -2.25330486
    8    7.90799237    2.54428172   -5.47948313     16.96433012    3.62232975  -16.66552566    -10.10440029    4.02079003   11.61966562
    1   -7.97991126    3.36467092   -5.24174197     -9.52695634   28.26254255   25.91560761    -53.58294805   28.72509259   40.89412614
    1   -7.60829977    2.47651282   -6.12731790     -9.46800051  -29.29435418   -4.27311752     23.56578741   34.37642388   14.63843456
    8   -7.10197382   -7.46907236    8.11091060      7.77636803  -12.85688901  -74.88945943    -12.99664016   -5.28265889    6.53617376
    1   -7.49736229   -7.73164801    7.19049137     15.39428406    6.52351340   32.40043506     27.82507581  -28.17192059  -23.09089619
    1   -7.86527170   -7.25742028   -7.68894736    -20.15325189    5.92401349   28.34197977    -59.78202793  -23.15485894    8.91676200
    8    6.66213128   -6.67988161    6.42831630      5.67433797  105.96889738  -52.39490585      7.07685774   -0.65247845   19.74918013
    1    6.45401018   -5.81376813    5.79290096    -21.86504370  -81.89630654   14.44249501    -43.41374271  -35.43759448  -19.93851452
    1    7.14454469   -5.92073282    6.77261834     14.07846876  -19.41181104   44.02022822    -34.83063174  -25.98018331  -85.53544768
    8   -1.44660809   -4.25353337   -6.19609466     21.19154216  -31.66763714  -42.03913549     -4.88946821    7.72814896   -3.71669128
    1   -1.49650707   -3.86468629   -5.35671679     13.25762214    6.66382779   24.08656335    -36.58208037  -22.37579997    6.84338168
    1   -0.50871264   -4.68079924   -6.37336189    -39.65322228   25.18116729   19.40384959    -65.62562258 -116.03912874   32.30407247
    8    8.10202913   -0.78938482    3.62033685     14.30689236  -25.39640017  -19.67666972      7.18609604   19.51874722  -10.50033211
    1    7.87154067    0.04462097    4.01286801     -7.38444425   10.70243111   10.60354210     -8.91516592   37.29392370   16.20626633
    1    7.53914159   -1.44380143    4.07457996     -6.64447722   11.70051358   -1.22535504     14.57724480  -20.22225442   -9.69418786
    8   -3.84659111   -0.75512584   -7.08409571      0.48570062   -1.41147651   15.36686559      6.19754587    4.12790364    0.36444166
    1   -2.92861198   -0.35625997   -6.98220493     -7.16592584  -12.03198955   -9.42838446     20.64004205  -18.76695647  -11.57249549
    1   -3.65926184   -1.73911372   -7.04929027     -0.79437699   19.20737936   -3.67752944    -21.62933850    6.38588990  -13.39206623
    8   -6.39529300   -4.15753638   -7.35655300     65.84765573  -50.00837688   79.57525318    -16.18689535    8.81388408   30.87072694
    1   -5.83592413   -4.74320509   -6.61186160    -33.91532539   38.07870424  -62.69962904    -59.83633929    6.95184740   52.91836688
    1   -7.12387074   -4.07575407   -6.83583608    -36.28470206   17.40602841   11.37011302    -27.04850004   26.06605431  -19.96422469
    8   -0.77059524    5.73570891   -7.90688374     54.14955489   70.42531667  -27.64294784    -11.35124049    2.10615281   12.80406633
    1   -0.40548173    6.02068134   -7.04211585    -16.18436628   -8.16209505  -20.04316338     71.60835069   26.20057763   -1.68568268
    1   -0.28069923    6.42920309    7.70083033    -33.97557055  -41.75765254   25.18349708    -15.79066222  -74.54027540  -82.27479680
    8    5.58713033   -4.93878713   -6.95861273    -40.02877412   98.88634370 -108.57355080     16.94154337   -3.36558217   12.79852598