 BEGIN_INFO
   #
   # This is a XCRYSDEN-Structure-File
   # aimed for Visualization of Fermi Surface
   #
   # Case: Tight-binding calculation
   #
   # Launch as: xcrysden --xsf HICOLM.XSF
   #
 END_INFO
 # estrutura final
CRYSTAL
PRIMVEC
      14.33742045       0.00000000       0.00000000
       0.00000000      14.33742045       0.00000000
       0.00000000       0.00000000      14.33742045
PRIMCOORD
  300    1
    8   -3.36715863   -5.49408475   -0.28193380      1.08948332  -15.90018709  -25.11605256      0.78788055    1.57592557    3.79506546
    1   -3.36508808   -5.00081500    0.52524895      8.87357818    9.73453735   22.91474333      2.02980877   29.52195265   -1.18647818
    1   -2.54628167   -6.02827303   -0.23932320     -8.51422782    5.01480139    1.74084619     -0.62806804   11.67096393  -25.06578122
    8    1.12177924   -4.92693099    2.08522462     19.14469406   29.48826777    0.82848295     -0.71860468   -6.21222037   -1.14380364
    1    1.45539606   -3.98219046    2.16317085    -13.48466824  -30.52398137   -3.67420414      9.22832784   -1.85983796  -30.14712141
    1    1.84683115   -5.43492086    2.47626262      1.95062401   -0.30147347    3.07226856    -18.50568020   46.47173943   -2.61984158
    8   -5.83972044    1.30122634   -6.05855911      4.56786894   -9.58146403   14.37152925     -1.44705845    4.88848662   -1.59267781
    1   -5.24590107    2.01410018   -6.37992036     -8.79954938   -9.72282725    3.99243830     -7.56366018   -9.48526399   13.78616208
    1   -5.37190758    0.92510751   -5.26262973     -5.66307059   16.11512564  -21.08127902      6.06522359    5.24788760   -2.21237138
    8    3.59827330    4.10666466   -7.00321370     13.56319873  -19.50023916    9.44069570     -0.67288138    0.74498411    5.19880659
    1    4.47852166    3.90309838   -6.61185662     -5.68124580   17.15187748    6.28058625    -31.90921419   -9.70763083   20.47208710
    1    3.46109030    3.25000978    6.91852877    -12.85407501    1.89831891  -11.35730163     17.06537236    2.93129620  -18.05148778
    8   -3.99193504   -7.15669858   -5.79864039     17.34671890   10.10532369   -9.96473239     -1.75214482   -4.61093887   -0.61362696
    1   -3.35498252   -6.47493786   -5.44956730    -18.59291195  -17.45254271   -0.71350409      9.87742227  -15.40992335    0.11167220
    1   -4.84515027   -6.83163462   -5.45819612     -6.30987317   -1.31899815    3.42433684    -24.12759993  -21.95121721   16.20470333
    8   -6.30707228   -0.86906989   -2.56893755     -5.53892099   -8.75317905    8.23973181      6.76177488   -0.54858336    5.04465202
    1   -6.87962305   -0.31411856   -3.10488599     -4.63741625    1.27924299   -1.90100717     -6.31272144  -25.82196576  -13.07086192
    1   -5.41955297   -0.57224551   -2.79311405      4.09526000    5.88437993   -4.92956040     -6.12299207    9.22964091   -8.15660497
    8    5.34320577    3.08244558   -3.11705443     17.79569931  -59.20782755    9.38469306     -2.30066230    2.62301857   -1.76049277
    1    4.88569131    3.87493883   -3.34078974      3.20922045   46.26104520    4.91961507     27.28519899   -5.73969576  -16.55958210
    1    6.18139240    3.32881105   -2.66794054    -20.30404722   11.87053253  -10.95905014     13.37322478   -4.80286175    8.45487139
    8    3.75267318    0.66023095   -6.12086048    -66.21223743  -10.63711899   22.06619224      9.66714295    3.29821311   -1.78803615
    1    3.96569918    1.11377009   -6.93342521     36.33782039    3.38500069   -9.90686679     15.62459681  -22.78643648    0.54698159
    1    4.52222697    0.28883065   -5.70061487     32.53921817    7.86023293  -15.82083483     -8.77740968  -14.41819401   11.32863925
    8   -4.41047364    0.73045265   -3.75763177    -30.11104130  -41.52431419  -18.16575234     -1.49008801    0.92811846    9.00357867
    1   -3.75077083   -0.00085111   -3.81966613     -0.40165985   19.83695410    3.81106557      4.78649408  -36.25854445   10.60680266
    1   -3.94083716    1.50137353   -3.50107351     38.33503172   21.17021719    9.88654874     22.28262827  -33.28312799   12.04706296
    8    3.29620372   -6.25517322    3.90557046     22.57122883   16.04737846  -19.98903346      1.47968419   -1.04627686   -0.87716533
    1    4.21367062   -6.03055046    3.63418270    -11.87825605    5.04517984    2.10091929    -19.22966162   11.38655722   -5.61297339
    1    3.42923782   -7.13727000    4.28745084     -9.06101748  -11.74941839    7.07428652     44.89281360   -9.92784637  -12.65080850
    8    1.39775967   -1.81951348   -0.56675261     -5.22618973   -0.02851914   14.61866323      5.80225800   -2.26894566    6.07640793
    1    1.47882225   -2.23948750    0.31798058      4.95500912    9.82663667  -11.06882839     16.15184785    9.43931673    6.71573005
    1    1.60870076   -0.87984534   -0.39854220      1.76171634  -13.41803482    1.48290525     14.26089855   17.14098238   24.61576214
    8   -2.36403357    2.77190705   -3.33711194    -57.43834751  -25.24807962    9.76294097     -2.17299363    3.69228892   -4.43629525
    1   -1.43916737    2.79741724   -3.22369336     38.75061943   17.93602384  -12.50754775     10.82107500  -14.45997700    6.11173389
    1   -2.61948624    3.47263772   -3.97582971     20.85587288    4.26248658    9.22758803     -6.33720337    5.43232929   13.68524068
    8    1.08494988    2.68529874   -0.55457028     44.28222228  -25.41133891  -13.82856492      5.53020781   -0.62649558    1.07337047
    1    2.03823619    2.35464234   -0.61764281    -38.00521996   17.60287015    5.62240294     -9.21782385   -3.65060213   -1.07696548
    1    0.90165061    2.83064448   -1.49455396    -13.33229846    9.80732985    2.71269723      3.07789546   16.15506216    7.92540937
    8    5.79267676    3.12932499   -5.82255380     33.39568502  -37.58592832   84.75620484     -5.61925535    0.24173719    1.33724153
    1    5.54507667    3.20814960   -4.83362683      0.64341222    5.75541393  -55.51812367    -21.64711060   -1.84422670    6.93025342
    1    6.56325727    2.49407561   -5.69319138    -27.21899075   30.34856250  -28.94435862     -2.31829367   -7.65453851   21.18992837
    8    0.71788495   -2.32355211   -6.21129036      1.79080277   -0.99495953  -14.66242073     -1.28101439    2.85963086    3.86756939
    1    0.20061843   -1.49213533   -6.08176267      4.41118981   -4.42363493   -2.35060847      2.14871665  -12.74587364   16.22430914
    1    1.07470267   -2.22771238   -7.12301547     -7.09655373   -0.33397558   16.44161804    -18.58539067    7.75218448   11.89494027
    8    5.83207158   -5.34559359    3.08654191     49.08554474  -46.30003612  -21.93190805      2.85606576   -2.40472318    6.96851623
    1    6.66333057   -5.86003600    3.19385140    -13.64311566   28.02334508   31.62153493     29.11644813    7.98270968   10.23887016
    1    5.67155738   -5.73077666    2.20775546    -36.19639968   16.84670281   -9.38187796      4.27456021   -6.10016672   -2.68140568
    8   -4.60913740    6.18647899    4.43462412     17.91335682  -12.66002251    5.62038591      2.34681480   -1.74685221    6.14000775
    1   -3.95342908    6.22029205    5.18611735    -14.65260450    8.35691208  -17.70299403     20.60355841  -12.02583820   -7.31685447
    1   -5.41062106    6.63072296    4.77336813      7.22624852    4.04379291    9.53193769    -14.20281550   21.72766376   -8.65746002
    8    4.50878073   -2.05540562   -7.04471671    -19.12495720  -12.88829178   -0.16877666     -1.88354358   -3.11422916   -2.10508330
    1    3.96930390   -1.32176248   -6.72114536      6.49239918    2.94780005    1.26738135    -22.26980143   24.78877001  -35.41806374
    1    5.33020320   -1.65132330    7.00668309     11.10941953   12.81077697   -2.21303359     17.50317082   15.81576544  -21.29944089
    8   -1.29642784   -2.18528326    4.23108169      4.24840387  -13.75796118   -4.75591746     -4.89490323    0.58295442   -1.88310873
    1   -1.86618999   -1.44156920    4.09037225    -31.81043731   14.81306419   -4.45105260     11.65224176   11.97611522  -15.21362182
    1   -0.46296535   -1.73839689    4.19962164     24.15883490   -3.10840020    3.40328790    -10.35879979  -15.67048756   -1.83202595
    8    2.65894050    0.36172839   -3.63587153     40.15027584   53.14500848   16.62024427      4.28551807   -0.46742360   -1.50785455
    1    2.04015137   -0.28690095   -3.83526363    -41.68218522  -44.33470001   -8.37714061      4.10834528  -16.32358849   12.03884584
    1    2.73168553    0.85980806   -4.46756290      1.55291164   -7.53307917   -1.72142298    -27.92306800   -1.26313686   16.60719177
    8    2.20059540   -2.36974643    2.11900833    -35.82854872  -13.52725224  -32.07217570     -6.02575374   -2.17301904    2.68709361
    1    2.86339074   -2.39816241    2.77710734     27.18388999    8.89240563   24.21766605      4.63997905    4.02541091   -9.32683359
    1    2.14506126   -1.44688145    1.85221838     11.16388942    6.07404176    8.49364254     -7.85501245    1.89445543   10.15118467
    8   -1.12281321   -3.02531548    0.06066779     12.15247204   -0.62285968  -14.14893161      1.04978637    0.01368883    6.31152310
    1   -1.62351996   -2.65474977   -0.66295423    -24.19288628    7.95129983   -1.92264884     24.68145198  -19.24843235  -27.41420250
    1   -0.25000496   -2.83887107   -0.28478902     14.93755299   -2.43536425   12.69093324    -15.47313263   26.35588108    0.34692493
    8    4.77926542   -0.87376924    3.05488232     17.66207348   -5.33637968  -43.80903731     -1.52530569    1.19984299   -0.47849244
    1    4.99635799   -0.73057703    2.06492899    -12.62011324   -4.16423288   54.68409680     26.35601087   19.61939768  -33.56317225
    1    4.37065571   -0.05247865    3.35881261      1.40343630    5.25098093   -9.36350461     21.33898674   18.55081349  -20.45649885
    8    3.45578269    1.82592870   -1.43923863    -46.47707719  -22.60219853   -7.33043458      1.11783881   -3.87552455   -5.15703975
    1    4.26990390    2.11253920   -1.85890690      8.00723561    0.75400914  -17.94602977     12.45157276   -8.26616410   19.32781124
    1    2.93028474    1.34085595   -2.16213000     39.23372157   19.93611344   18.72635405    -33.83689659   -4.11618708    7.49025259
    8   -6.30530749    4.69235011   -1.00891631    -17.40575063   -9.24807869   25.10398887     -2.38300739   -0.81654270    4.30678141
    1   -6.97702123    4.48101808   -0.29471003     20.89269973    7.18849619  -25.15973951     10.38380262   33.20598546  -19.97138969
    1   -6.19126287    3.84212651   -1.48296968     -2.79818942   -0.35509179    6.42672736      7.47485109  -23.24664678    4.48934025
    8    2.04661016   -5.13844487    5.89882524      6.33759495   11.29485405  -14.18552250      3.81178358   -6.05269169   -0.82842548
    1    2.50127365   -5.47319107    5.10309554      3.29240191  -32.51380548    6.89631684      4.57444186    6.49715301    5.15714096
    1    1.98851877   -4.24163258    5.58993093    -14.06159075   29.53687387   16.54560499      6.37683674    0.12541972  -22.97964054
    8    1.83568599   -3.93458722   -4.19194491    -26.23190587    7.66961323  -24.39053907      1.15662461    0.92599521   -1.58968997
    1    2.50291669   -4.55282628   -4.56230405    -15.67275617   16.33792217  -11.85638543    -17.44107563  -11.95607935   20.35204827
    1    1.30415045   -3.57107965   -4.98609277     42.14478275  -20.40905098   32.27448913     20.60523037    4.49366818   17.06292489
    8    3.26080710    1.53739435    3.22011579     -2.03346738   35.61267275  -10.72756794     -0.54292780    1.12540770    1.06651421
    1    3.10034172    1.02747515    2.40240031      0.12019102   11.26027850   -3.17650824     -3.50734519   31.77582641   -9.94480279
    1    3.30363731    2.51409335    2.90619237      3.30555566  -52.23674677   16.50746635     12.38340722   20.25363094  -15.25742061
    8   -2.41406326    2.75569694    5.93447300    -20.09192862  -10.37928083   18.15467483      0.48151629    0.79301811   -4.24797844
    1   -2.04251044    3.26308545    6.68625656     10.05049300    4.01041538   -6.46761597     -2.71275519   11.02140457   -1.79101898
    1   -3.00646742    2.14543687    6.44515599     14.69084112    4.36769342  -22.32728170     12.54289972   -4.06905747   -8.61426710
    8    3.12212543    0.23094488    0.69823208     -6.58483358  -42.25891044   56.67059428      6.77321075   -2.38362810   -1.71989519
    1    3.99842718   -0.16034191    0.48184200     -4.03029264    6.30519823   -9.72521593    -10.66905013   10.18461351  -12.41215032
    1    2.98696141    0.88210766    0.05353743     10.19572695   32.00025119  -41.83947689     -7.53069634   16.68473119    5.14373026
    8   -5.97551104   -6.73854881    1.69589815    -31.52483577   -1.20001962  -15.33004659      2.96490519    2.38421321   -5.24517216
    1   -5.45115985   -6.23298883    2.28900671     16.03991013   21.99468010   24.03221864      2.72127376   -5.60035195  -10.22469541
    1   -5.32637724    6.97298625    1.35760823      7.00488992  -17.52435606   -7.02168972    -18.87311634  -22.02601601   -0.04207271
    8    1.30473571    4.87696790   -5.51277402     69.71590045   -4.92931806  -53.63106143      5.09249099   -0.26682264    8.15553194
    1    1.46001769    5.82630409   -5.66966564    -20.41558870    2.53312398   16.29905090     23.24947207    7.55931757  -27.03457654
    1    2.12289191    4.54070793   -6.02136597    -40.89719487   -0.85554286   27.31198010     15.35896837   -3.27921136   14.94991412
    8   -4.86745518   -4.54774338    3.01658749    -29.06937432    3.18783481  -10.20736179     -6.58005698   -5.56140845    0.58590241
    1   -5.45083210   -3.80363965    2.69174227     26.43870839  -11.15257066    7.84510792     16.80309166  -18.21825285    2.76701178
    1   -3.97104459   -4.35554659    2.66459499     -4.12069488    7.77283764    0.25660368     12.41882142  -26.32948372   -8.51071953
    8    3.88629990   -4.58890860   -6.22845887    -36.48893634  -15.76815364  -37.45285606     -2.13789759   -5.41890720   -1.10305689
    1    3.28302544   -4.79331670   -6.99147794     12.40703966  -18.55138733   29.16443770      7.78881676    3.81232592    9.53739901
    1    4.09749659   -3.70458116   -6.50163513     22.60270447   29.21969844   11.40845888     16.56419003  -11.72231797   -5.16107617
    8   -3.09377223    0.22766504    6.76583388    -12.08878935  -20.67567725  -22.34132922     -0.34723073   -1.17077010   -4.16808619
    1   -3.73965987   -0.47836200    7.00915143     10.52877384   11.91918523    0.86332576     19.38702536   -1.94592447    2.40333703
    1   -3.00677240    0.11011512    5.78553595     -2.14035126    3.37087369   23.58541348     16.00530381   15.83467066   13.90195793
    8   -4.36976745    5.60603000    0.95366105     -6.95483108  -36.49247027  -24.44981723      4.12420585    6.44881429    1.21049171
    1   -3.93389010    5.13221447    1.66919646      0.89699154    2.33977780    0.31003764    -18.09892402  -10.73964257   -3.52192837
    1   -4.63148742    4.87350524    0.31739158      8.71590865   35.61510796   22.97870357     27.09967071  -19.77867584    9.69415341
    8    0.60893550    5.67595652    6.05012688      8.11097371  -29.73021453  -13.41347690     -3.03082294    1.12557273    5.22466324
    1    0.20088029    5.04459460    6.67004654      1.83733113   12.13385484   -3.11901812      2.96042941   -6.29034217  -23.65892529
    1    0.42537262    6.54914763    6.42401684     -8.18898005    8.44244271    7.86239398     27.41753774   12.55221138    6.12634592
    8    0.42082919    4.06872744   -3.18914455     -5.91169332   13.96169189   11.63989294     -2.45905182    3.51548907    1.67110216
    1    0.14960887    5.01023151   -3.02479696      4.14086094  -27.77656022   -6.46500182    -11.41623419   -4.68881513  -27.28241388
    1    0.96606747    4.12947274   -4.00118537     -7.47813428    8.39519363    3.89776705    -10.46332827   21.53058907  -29.18097730
    8    3.83188459    4.12575720    2.84394317     35.59146288  -21.21853579   27.13964557      5.12754508    0.71978196   -0.97600350
    1    3.19297063    4.30426720    2.19294049    -36.25847061   18.75230860  -26.23289733    -24.59275500   16.51970770  -14.60764119
    1    3.61229166    4.72190760    3.58006477     -2.33869602    5.97747216   -3.27324304     15.65565927  -25.36996881   12.56495810
    8    5.33666511    5.71713193   -3.63604999     21.19233774   10.53676795    1.16783351      3.31449359   -1.48421497    2.10162389
    1    6.15950368    6.15261370   -3.37791576      0.00560222   -7.94585603   -1.86848092     -4.98091377  -24.93126931   12.84076490
    1    4.74613520    6.49626664   -3.70503441    -13.39463666   -8.12003163    1.30374463    -17.78435114    6.45555124   18.47163900
    8   -1.63747573    1.91863568    1.19067839    -17.22160045    1.57582696  -23.38921086     -3.05793440    1.69699583   -6.37159001
    1   -0.73679298    1.85064142    0.88323733     11.28361974   -2.47918169   -3.38575138     -9.85870528   16.33471553   20.19279053
    1   -1.54244219    2.14892733    2.10312242      6.45424930    1.16478341   25.43262283     -4.83357812   26.63656731   11.61008858
    8   -4.15924419    3.56644787    3.94143733     -2.79175962   23.82013113   -5.22493642     -5.01277263    0.21138076    1.41590622
    1   -4.16490027    4.55188355    4.02777607     -5.07387863  -11.45953202   -2.57222036    -36.86454605  -16.40062378  -30.97742565
    1   -3.48819793    3.31373647    4.58528505     10.05041228   -7.84795348    5.97292092    -24.39702265   -6.02100915  -19.53595270
    8    5.40954512   -1.13775421    0.31559161     28.18707772   16.53942336    1.39585740     -3.23189486    2.64262406    3.92738345
    1    6.38051549   -1.20040127    0.02539150    -49.43109272    0.91731335    9.56637694     -0.66473968    8.37971105   10.51443308
    1    5.01853468   -2.00843019    0.19038873     12.54213793  -16.83042469   -9.51932521     -6.34016682  -13.42466177  -23.24446573
    8    6.06175875    4.33913497    0.89756883     65.42262318   -9.34031125   -9.15768298     -8.09362664    6.23360772    4.82955347
    1    5.39300245    4.48467797    0.25252025    -33.55523650    7.68745577  -11.45040087     11.05959726   -5.72049223    0.33745315
    1    5.59162367    4.21253661    1.69948235    -27.67808716   -1.55171475   26.20247154     13.78971059   -3.12195744   -6.16098530
    8   -6.24472011   -6.61187931   -4.36437562    -28.27874711   21.79647792   22.64030901     -3.18133553    5.02510074   -5.47027055
    1   -6.03508643   -6.69798284   -3.42199815     18.25646146  -10.77325145    1.33799281     -2.26578017   10.97148414   -5.65345849
    1   -7.05888153   -6.02365210   -4.25832454     19.52652744  -18.01146385  -21.57390103     33.25029378   -0.04160369  -36.33576173
    8    2.34301565   -5.31345021   -0.78273844      6.39549648   -6.75345910  -12.70593462     -3.75825874    3.62283436    1.91427606
    1    2.71278707   -4.43948239   -0.58096464    -14.17748005   -5.45256802    6.03686824     24.94948185   14.21122674  -18.89451304
    1    1.42454995   -5.31225215   -0.47468442      9.76497432   10.26819592    4.75697953     39.45536336   -9.89553043   22.86998233
    8    5.42225646   -6.69071305    0.86356698     -6.92309115  -44.47260442  -21.52455794      0.05780839   -4.63970863    2.84109301
    1    4.92507883    6.84424137    0.50154082      8.95620230   36.30947255   18.66818973     -3.23259487  -19.12175516   -0.90113036
    1    6.33119356   -7.02877913    0.86177381      1.77815277    7.68138104   -0.54409390     -4.54496939   -6.79445314   -2.24258435
    8   -7.14981724    5.40832137   -6.77967460      3.32730524    9.30469061   37.75807740     -1.65711065    5.76250045   -4.45441122
    1   -7.16512372    5.46645259   -5.80730466     11.80443736   17.74917521  -12.46635872      1.71440869   -2.60083310  -31.86841052
    1    6.59647513    4.66792998   -6.85271808     -9.46864841  -19.09119697  -25.12123422      5.42473342  -10.28647230  -19.86286254
    8    1.50696128    4.49495456    1.31118127     16.12032240   40.41556703   45.88243862      0.90680847    4.01897874   -5.77198607
    1    0.77188085    4.68009224    1.95623824     13.61330207  -15.15850743  -23.20875219      9.62722276  -10.51397393   -0.87370018
    1    1.14071932    3.94437613    0.63042375    -21.65963729  -21.81738866  -18.84749810     41.40979311    4.19324394    7.72874607
    8    0.67469734   -1.57176436   -3.14521766    -15.91978332   -4.45388591   -7.57675608     -1.38784041   -4.59928916   -1.62937449
    1    0.65275568   -2.50843791   -3.42948109     10.00690260   12.60468047    5.95657324     -9.25632953   23.65225954   -1.16510203
    1    0.88738023   -1.60939775   -2.19856041      8.46259302   -8.19312760    2.31413093     -3.34309101   34.27712053   12.99184964
    8   -3.21557184   -0.16911519    3.74800213     40.23739000    3.09678505   10.69485096      1.12316443   -0.80031687   -2.17989466
    1   -3.19898668    0.71647208    3.32273310    -10.54280729   -7.13276694    0.78309089     20.32679412    0.50402982  -14.66393756
    1   -4.10138956   -0.48292517    3.71301844    -29.63172742    5.08923047   -6.21857358     22.59726431   -9.55086271   20.29098732
    8    0.98075921   -6.72691647   -4.95453609     14.68651294   -1.73787441    0.01588426     -3.97981651    1.32973635   -3.93023014
    1    0.62041847   -7.00003747   -4.11008523     -9.58799097   -5.54461725   10.52552976      9.19801065   -5.59709130    8.22224542
    1    0.21027022   -6.30707785   -5.34202519     -3.87819512    4.02215709  -10.19187518     16.41271296   12.20499681    3.31811157
    8    5.29744586   -0.79121502   -3.93553694     -1.76874252   45.44342922  -16.89158355      1.70211787   -0.75502977    1.90881409
    1    4.97940965   -1.57619236   -3.56010121    -13.96999739  -29.30123505   17.05762130      1.06761198  -14.79763889   14.57478937
    1    4.53500895   -0.15121703   -3.70962221     12.82909500  -17.10056122   -0.44153723    -24.20398460    3.61470093   -9.26154730
    8    4.89748146   -3.96579550   -0.08148212      2.47998118   18.49684501  -14.79512009     -2.16581237    0.30902138   -4.42706487
    1    4.67307534   -4.79558999    0.27286963    -12.96696296  -26.89324063   13.57547184      9.10310488   15.74748456  -21.63079398
    1    5.84606461   -4.18089711   -0.23426297      8.78299495    6.85418271    0.44768248     25.27431845   -3.71069717    7.77542245
    8   -4.55598162   -4.38436531    5.63978820    -30.28957429  -10.87519281   -7.58840122     -2.92027564    4.40082898   -3.95689242
    1   -5.43411707   -4.51563704    6.20749444     20.80889402    2.81113789  -14.77367289     14.33276253    8.63351076   -3.00368776
    1   -4.95123334   -4.64832790    4.68781768     23.31633345   13.04923163   25.83590696     17.28557105    3.19448878    4.75233631
    8   -6.85855180   -2.86258304   -5.44345850     -8.86232442    3.47427604  -19.74293233     -2.58407002    3.80032481    2.57430625
    1   -6.75952491   -3.23848294   -4.58829942      8.58660890  -15.55831315   25.38674557      1.57424877   -6.47292545  -13.58732877
    1    6.74066448   -2.29548163   -5.25087906    -12.42210545   11.82568453    0.21645934    -12.52761369   -1.88964747  -15.38708881
    8    5.82897402   -5.39128317   -4.08922850    -14.75189157   11.29709384   -4.81008364      1.28087664    1.50163903   -0.78364204
    1    5.36944831   -4.58728603   -3.74315471      5.44862887   -6.09171688   -2.07005190      3.31498504   -1.82955798   -9.19027336
    1    5.22813183   -5.62725113   -4.84543952      1.92049634    4.76801062    3.40834906      7.02655944    4.36533302   -6.16478309
    8   -0.65445403    2.26054277    3.93495408      7.64767424   31.71541686  -16.68607449     -6.84283858    1.29095971   -2.22605107
    1   -1.23408296    2.49027819    4.71457987     -4.43809136   -4.12254554    2.38926752     11.23079357   -4.64381911  -24.18951531
    1   -0.47055144    3.25561547    3.57156944     -7.40569488  -31.52912590   15.24842164     28.15372834   -8.55836595   14.04552739
    8   -5.99301641    2.30803033    2.27640476    -19.97660586    5.01504891  -23.20163634     -0.43371231   -1.05068318    0.46766713
    1   -5.25038872    2.91342128    2.48501211      3.64888343   -2.16707413   11.39513812     -7.96405255    2.41598817   -5.23962384
    1   -6.57709091    2.89568308    1.70916116      7.09731916   -8.37670095    9.77918723    -14.97061998  -20.28670166    9.19621623
    8    6.56040854   -0.13904398    6.81543200      8.72586777   -7.54734583   13.17874864      2.71264676    1.47029991   -1.07148335
    1   -7.09767542    0.28375483   -6.85870886    -14.32527961    1.82631011  -20.60885234    -14.82304115   -6.38987341    3.68820829
    1    5.98942846    0.57178442    6.48141259      6.83361084   10.73702657    5.16409273     -5.04883922   31.57906855  -18.37587020
    8   -5.75960928    3.77421744   -4.32996636      9.85728783   -9.18572405  -33.94288618     -2.62684260   -3.20346841   -0.79233109
    1   -5.45165589    4.49805427   -3.82508678      6.70212975   16.55065277   13.66564590    -28.23467584    8.30064431   -6.77441228
    1   -5.14174571    3.82736317   -5.14210753    -17.21592465   -5.10019217   19.25834333     15.36815956   10.47212895    7.60914924
    8    2.12074395   -2.23341802    5.37687187     28.35841800   -9.98237851   13.98130086      5.15556668    3.40639545    4.35700923
    1    3.03590275   -1.92070335    5.64794065    -12.04166751  -14.14699490   -0.47728240     14.86148227   -2.36326037  -22.00344406
    1    1.80846846   -1.41496319    5.01672672    -17.65995026   20.94193458   -8.42780739    -20.31725760  -10.43808819   27.20808640
    8    3.73820497    5.56143975    0.07736111      0.29467591  -10.72458848   23.89689043     -0.43814180    3.44429259   -4.47765798
    1    2.85557647    5.27689731    0.55512365     13.48095378   10.31056523  -21.50540798     11.30424076   -1.87336524  -11.46792373
    1    3.51202123    5.97404793   -0.74605921    -17.66733084    3.12850935  -10.04419636      1.29870882  -33.28312589  -23.39367556
    8    6.91096579    3.60998466    5.24299356     -9.08536039    2.04216299  -13.75482640     -3.11657868   -4.77843552    1.28484187
    1    6.73963371    4.44276519    4.71279727    -10.67357481    2.81677597    6.92949144     11.87403357  -17.72839737   -2.58148224
    1   -6.64512809    3.36590275    4.77337737     13.26614979  -12.34823552    0.17710413     29.14715720  -17.67338317   -3.18753420
    8   -4.86601552    3.70629021    7.03539131      4.35139462   -4.43089929   34.68891353     -2.34375594    3.71045377    3.39569423
    1   -4.75719280    3.71963161    6.09869786     -2.50532355    6.56786404  -14.89022959    -16.20761472  -13.02938983    5.55123662
    1   -5.24875749    4.58218038   -7.06445408     -6.20688270   -1.66982435  -12.98341012     -0.90815811    6.75443178    7.90675063
    8   -1.21624641    3.78396077   -6.29219100     -3.47337005   24.47206251   14.45034293     -4.00614386   -0.04597619    1.50344125
    1   -0.39382901    3.97501848   -5.83588512     21.63258970   -8.96507362   -0.41896702    -26.65142852    8.36794319  -29.54049811
    1   -1.69234690    4.50457240   -5.81077254    -13.30658576   -9.35954645   -6.18390162     10.61381176  -25.86546014  -10.07915735
    8   -6.71558945   -4.13739547    0.06742590      1.99093878   43.83758491   47.60113921     -0.50012310    0.45566807   -8.61326086
    1   -6.25279312   -4.87800033    0.42091381      6.64345423  -23.58793429   -0.22021221     11.28820740    3.05466996    9.33420991
    1   -6.58696506   -3.49942529    0.92719344     -8.68428161  -21.29321394  -39.87674137     24.45171888   -7.24759649    4.76176767
    8   -2.56835810   -5.65574726   -4.16935052     11.19808171   -3.29284531    5.33107928     -3.66156572   -2.39778001    5.06585984
    1   -3.04822526   -5.08264070   -3.49771547      0.42339137    4.74032095   -7.98996248     -5.44205956  -12.76171376   15.82583820
    1   -2.17526064   -4.96908486   -4.83787205     -6.23098216    3.47047567   10.09472270      3.25810529  -11.19305137  -17.65869225
    8    4.53749505    1.97492816    5.77590510    -11.85509282  -20.81333713   21.37071473      6.51192397   -1.75041471    3.52804069
    1    5.31883579    2.44275678    5.51404949     21.14128246   17.73949168   -5.14774147      0.27447507    8.46825349   12.99130533
    1    4.07671504    1.88327938    4.94187550     -6.99620607   -0.55825885  -17.42364913     -4.42085690   -8.65030992    0.79160049
    8   -0.76052893   -0.05488987   -6.05848471     18.27508898  -10.08589383    8.50014631      0.23553343    3.26203302    2.63970223
    1   -1.58558091    0.09376743   -6.57195145     -5.27032201   11.74013097   -3.12860992     10.92521111  -19.13185430  -11.47850385
    1   -0.33101001    0.80931322   -5.89508078    -14.78380027   -0.31650977   -7.33352353     -9.34253039  -12.22727813   11.91810260
    8   -6.93251893   -4.54083864    6.67165955    -12.03624500   22.88453801   -5.94901916      4.79784313    3.50844846    3.38038151
    1   -6.96195984   -3.99233482   -6.84515450      2.16629806   -5.83519452   13.42194805    -30.59997362    7.23542412   31.80540897
    1    6.90673127   -3.87134204    6.10614325      1.03322231  -12.85167418   -6.50279223     13.19126841    7.31742533   -6.58425799
    8   -6.15154383    2.24622641   -2.11570335      4.92235507  -16.29652622   -5.01808059     -0.66383134   -4.16489546    1.76905241
    1   -6.14000399    2.45904200   -3.08118745      0.35202147    9.45415838   -0.84912260     -2.21138550  -12.05337487    6.32939864
    1   -5.62844991    1.39198689   -2.17468566     -6.69856068   10.91679672    9.86106090    -17.58152754   -3.80912498    3.54812842
    8    4.00057633   -3.03805451   -2.64088484      8.02191639   -8.32423199    6.05584781     -2.70819377    4.25104333    7.38863460