 BEGIN_INFO
   #
   # This is a XCRYSDEN-Structure-File
   # aimed for Visualization of Fermi Surface
   #
   # Case: Tight-binding calculation
   #
   # Launch as: xcrysden --xsf HICOLM.XSF
   #
 END_INFO
 # estrutura final
CRYSTAL
PRIMVEC
      14.26853527       0.00000000       0.00000000
       0.00000000      14.26853527       0.00000000
       0.00000000       0.00000000      14.26853527
PRIMCOORD
  300    1
    8   -3.67984907   -3.51735732   -3.03683605    -20.24288472   17.92321697   -3.14960856     -0.94908998    6.01063512   -1.01922228
    1   -2.79519383   -3.33143744   -2.74524516     19.16740250    1.44344300    1.96766242     18.69520874    2.24431862   -6.40436815
    1   -3.79856267   -4.44361138   -2.86430476      8.41808086  -24.63203370    1.88744692     20.95923071  -31.57417587  -20.72573560
    8    2.32403885    4.03889160    4.10961599     68.98255230   79.89909617   -6.63969231      3.39457429   -2.73196844    3.54883173
    1    2.23328345    5.00924503    3.93996226    -37.25231757  -33.26693160    3.73730682      8.44938341  -24.77067041   18.15419507
    1    3.34277037    4.11754531    4.13121543    -39.53246583  -51.20344941    1.21638696    -17.56330316  -17.00079801    8.68364536
    8   -6.98890922    3.08788212    5.68738402      3.84586259   36.15490751    8.10983630      4.19465136   -0.05770634    0.54424420
    1   -6.12060452    3.03958796    6.09158632     18.00246443   11.24688488    2.47233270     -1.20104341  -21.08648602   -4.94255552
    1    7.10362779    2.18612902    5.58265802    -19.37368772  -50.10387740  -10.43800224     -0.88037313   10.95417509   17.64656672
    8    3.44477596    4.51446121    6.95075798    -38.99387961  -15.12137597  -13.45622837      5.38593774   -3.65050184    6.41608646
    1    2.56829088    4.30452900   -6.89794524     28.97152035    7.18569923    2.95527140    -22.61658789   20.59703595  -23.22999020
    1    3.26261204    4.20865732    6.03970297     11.96040262    8.42757843   10.95809995     10.41217411  -20.87622334    1.49421052
    8   -3.19753935   -6.23475372   -2.87337324     70.98601057   -6.26315292   -8.42841490      3.08713581   -0.80507139    4.84025854
    1   -2.21332110   -6.35554986   -3.13007608    -59.96270708    7.92193636    2.91286014     27.55557991   -4.39409832  -18.80788768
    1   -3.10326344   -6.31471282   -1.90586078     -9.54479566   -3.89664113    2.41340458      9.04147192   -2.06237943   -6.36401012
    8    7.04842330   -0.88093620   -2.08006501     31.01623387   -8.87319039  -10.51205080      1.26130662    3.65327605   -1.95417498
    1    6.16299810   -0.56616713   -2.17657514    -22.67959062    5.60833007   -7.57000901      5.18098486   -6.19126909  -21.50244601
    1   -6.97392340   -1.19469410   -2.97405588     -9.16076224    1.80634555   11.73740790     14.41963842  -13.47413017   -2.11823104
    8    3.68507339    1.33843281   -6.00136555     37.16586824   13.29485789   -2.50429170      1.41023819   -1.38146821   -0.67517124
    1    4.57507376    1.80839964   -5.98682532    -38.12134939  -18.48788044   -1.62139091     -2.88252665  -15.12030002  -14.54249415
    1    3.06052926    2.07201222   -6.11085350     -5.36713377    1.60521601    4.34263994    -14.17572056   -6.73002391   21.87615036
    8   -0.16587850    1.05617879   -6.73146374    -16.76213580   -0.68401007    3.26691123     -1.34165163    7.51404721    6.28499512
    1   -1.11426893    0.75578415   -6.73922695     28.92919612    7.22498897  -15.82407046     22.21137589  -10.49649057   21.40598808
    1    0.14563524    1.05516638    6.60406038    -12.42472523   -6.10691402   10.61311986     18.75938297   14.64063583   -3.74678452
    8    4.41222358    2.69327281   -1.56723650     20.71320042    2.53233390   18.39669331     -1.06117430   -1.24123987   -6.07095275
    1    4.75650515    3.01327619   -2.39185946     -6.61761735    3.13321875  -30.30753684     11.59106404   10.23554939   -1.24169339
    1    4.91949379    3.28131388   -0.98612104     -6.69460934   -6.70095787   16.13046060     -8.67337441   -7.38131160   26.66070980
    8    6.81603752   -7.06429634    6.26439559    -33.02492813   -0.78093946    4.69404242      1.09735332    6.79506115   -3.83729120
    1    6.01626805   -6.84433201    5.70504142     20.52778958   -1.68744240    6.52695641      6.12041352   -2.89929294   30.50664818
    1    6.42129084   -7.06168408   -7.11638889      7.47252453    1.98804300  -10.12543803    -14.54893397    7.20395786   -9.31961200
    8    3.10170597   -5.64176261   -0.94855135     23.21352229    1.49502290    9.40147385     -7.10538329   -4.44813964   -7.13005458
    1    3.45772629   -6.40824729   -1.47347548     -0.84198809   20.59489325   11.26792747     12.73289626    0.91596514   -1.02558496
    1    3.88822970   -5.29486221   -0.44422918    -20.12824493  -13.88241903  -20.34430421     -5.97540268   -2.33099378   10.52332438
    8   -1.84211182    2.01823993    0.92020635      7.44641301  -21.91615652   -0.50665071     -1.16336334    3.84700098   -1.15879477
    1   -1.10159625    2.36666263    1.46460818      4.14540845   -5.37807477   -7.52103240     -1.07193035    8.87734074   21.80304131
    1   -2.44757151    2.74084708    0.99389868    -23.17654441   18.95108840   -0.76965935     22.32138617   18.69820334   18.67216642
    8    2.06450986    3.69773896   -0.59067052    -37.43863528  -35.63538911   50.26396907      1.47562769    5.67995461    1.00413326
    1    1.40610239    3.32513316    0.09562031     36.99930423   25.35627988  -45.46592053     -8.35354018   10.00300775  -14.71564904
    1    2.67661764    2.94082310   -0.71454378     -2.78268355   14.44358280   -5.23454534     27.27392346    9.01154630  -17.64984424
    8   -6.76823319    1.28536611   -4.96430174     14.27700547   -3.81089735   42.43945017     -7.90718588   -0.17622355   -3.33797104
    1    7.10768364    2.01553209   -5.40441903    -14.51439813   20.02535475  -15.12476921    -11.41802084   16.23215292    7.61223367
    1   -6.58785029    1.66337588   -4.04302881     -3.37964179  -16.39292226  -33.15077756     -0.76130470  -23.93167702  -41.82158103
    8    5.01079274   -2.00834638   -6.14958205     23.24904160   14.39022908  -18.11416635     -9.03847304    0.13915016    3.89771632
    1    4.49550489   -2.15031509   -5.37764792    -19.28034098   -7.66597393   21.40890797      1.84248212  -17.22488980    1.07758742
    1    4.54185639   -1.27133609   -6.59568336      1.16763697  -12.88276997   -0.13511406    -11.95592512   20.08658616    3.02392206
    8    4.48535421   -6.50316192    5.08913683     -0.14083212  -10.43280580  -10.25753347      2.83449756    5.82252022   -0.73612656
    1    3.94427196   -6.70409195    4.30014342      2.55752845    5.39141322   13.11243242     24.06313481   16.50588813   -1.26152498
    1    3.83436595   -6.35230439    5.78651005     -3.22133536    4.29945464   -1.10221364     -4.96425359  -25.96396523    0.05327656
    8   -4.26445488   -6.76481054    4.07243661    -29.45625591   51.56111261  -43.76648997      1.54042004   -4.01464506   -0.19219831
    1   -3.43110424   -7.06923172    3.66655017     -0.49448176  -25.76617749   32.50528548      0.88821003    7.09740944    6.99935546
    1   -4.50953064    7.04356960    4.87779169     30.42934651  -26.21166621    4.46565442     -7.31676450    6.33372516   30.80631365
    8    2.95751266   -3.41666861   -4.72593052    -65.83766134   31.59614509   -0.38726687      6.78109309    3.99907642    1.09985972
    1    2.19479455   -3.98155710   -4.43954891     27.84507155    9.62523002   -8.10955039     34.28509011   -1.67972319   33.93375711
    1    2.45562646   -2.55753208   -4.98860594     39.66758944  -40.58762216    9.23413199    -44.37071747   -5.67737699   15.80413768
    8   -0.14225174   -2.60494587    3.72385895     21.05758946   -6.87657439    0.03470806     -1.67519440    0.94103057   -0.47590734
    1    0.65663233   -2.93565606    4.11279786     17.71700324   22.14681079   22.63413236    -10.59674554  -16.44758937  -29.14559351
    1   -0.35479742   -3.41410235    3.28219581    -37.12412572  -10.79331856  -25.39824781    -21.56767738   -1.98384143   25.67018926
    8   -0.26558550    0.34220648   -3.67949447     15.89098610  -18.69977502   61.35715816     -2.66807650    1.17976498    6.44191558
    1   -0.75648175   -0.40263523   -4.04085398     -9.48633467  -11.08541797   -9.82582275     10.51921343   12.03154261   -5.10500241
    1   -0.23469451    0.92766872   -4.37456236     -0.23960098   38.48093770  -50.14383727     -4.39271786    5.32333075  -13.26198111
    8    1.58610465   -3.11908401   -1.62667008     12.53946411    3.76618048   29.68199462     -9.33737518    3.80859395   -0.30816201
    1    1.73794924   -2.83421905   -0.70225012    -18.39906062    8.61765716   -8.40231750    -15.37366860   18.32959870   -5.97748320
    1    2.27532261   -3.77480413   -1.64764790      6.15135018  -17.57572235  -21.69880560     -5.94276421   20.97908935   11.03066018
    8    0.39688266   -5.48414196    0.01940622    -19.76050126  -58.84814041    7.00131819      4.73092663   -0.68339433    5.21840962
    1    1.31709168   -5.31115434   -0.13480062     22.16221384   21.39756025   -5.59055907      4.47780146   -4.01057850   12.49713426
    1   -0.06574004   -4.64650813    0.02651103      3.85387297   21.67528128   -2.37914260     -3.90805857   19.61570447   17.13738631
    8   -6.49298676   -5.47307923    3.19955657     50.40955136  -26.95413954  -37.60456732      5.06047659   -2.84808068    7.01122521
    1   -6.38667051   -5.41307310    2.23404522    -33.44046357   23.98892426    2.80528691      2.37095087    5.55403519   12.30433619
    1   -5.66953512   -6.01435068    3.30179814    -19.21565629    3.75488649   38.04997103     18.79564526   19.09116711  -11.71632717
    8    4.02823460    0.04308384   -1.93903712     19.65238506    2.29270038    4.73262718     -4.03105375   -3.84304853   -1.24818139
    1    4.22203284    0.98538401   -1.81149554      8.19481324    5.88724730   -0.22956890    -18.61086848   -5.88743454   18.93114201
    1    3.08560797    0.07658085   -1.99301914    -26.09143937  -11.56671267   -3.21265237      4.03167331   -1.29368360   -7.58266091
    8   -0.28251500    4.63169184   -4.25464374    -14.64204704  -14.27124567   23.39460598      0.15969592    0.10776419   -2.71513042
    1   -0.79099696    4.14348709   -3.52695238     25.92728483   18.76076189  -28.09955627      0.73925309    8.62798628   38.05540206
    1    0.29573037    5.25289860   -3.76847273     -5.34277707   -7.01431649    4.41938165    -21.37480367    8.16551715    7.56125698
    8   -0.88370939   -2.84230910    6.85861566     41.05255666  -29.63590129   49.44498890     -5.92339194   -2.44426872    1.27506355
    1   -1.20790511   -2.11934349    6.37355454    -27.47651379   24.60903670  -39.21773189     24.76377292    8.99244027   -3.93168944
    1   -1.24504300   -3.63998012    6.45440202    -13.45206635    4.55106567  -12.31633174      7.57809880    1.19581942    8.83598104
    8   -0.83639865   -1.18748486    0.33681823    -48.21392558  -27.55188691  -10.82449704      0.21208423    0.34975120    1.10714223
    1   -1.74209257   -0.86658446    0.07360193     28.99661522   13.12773576    7.54126420     18.71437406  -28.21045257    1.12163347
    1   -1.00447154   -2.15200033    0.27270626     22.60169993   14.01709507    6.98035905     -7.94666835  -13.03898903   -0.72204698
    8    0.38958776    0.06491359    2.70140301    -15.72476549   -1.01476335  -18.42743515     -7.03128216   -2.91076870    3.27385957
    1    0.47497917   -0.83915068    3.00835012      0.28190128  -10.43167021    2.94100917     18.10540061  -14.70972243    7.00490870
    1   -0.24814301   -0.04166513    1.94957479     17.61223728    6.11570127   14.08041023     11.49150260    7.96788089    4.13690127
    8   -4.31362574    3.85407681    6.47807407     22.35040733  -42.33533080   12.75650277      3.18568934   -4.53788679   -5.66602730
    1   -4.59325816    4.70173370    6.80499176     -2.66896051   19.77326845   12.75393813     28.90352599   11.73667628    0.50541775
    1   -3.83244899    3.43069498   -7.01752657    -26.37841395   25.24654351  -29.68158198      9.82936221   34.48206197  -28.10905575
    8    1.06330951   -0.00373921   -1.30427570     15.46952571  -14.92064617   22.97881329     -2.26421150    7.72877545    3.54641241
    1    0.57011339   -0.76658704   -0.86873731      1.65675739   33.86183984  -29.19439104    -21.48672311   18.25390209   -0.75755742
    1    0.60062298    0.22648467   -2.13226430    -13.60340115  -18.59645095    4.66331453     25.38895156   -9.53877262    4.93851922
    8   -5.81710639    5.42342379    1.62720644     -6.65477020    2.81722592   -0.24040696      4.37550102   -2.25957136    5.56932763
    1   -5.91010634    5.19772192    2.56544071      9.18920107    0.12960387   10.41308593      8.99502857  -22.27173770   19.49100831
    1   -6.69693640    5.76673548    1.44995553     -9.28866938    8.28610229   -6.00229566     -5.48359409  -16.98250403  -20.05340657
    8    2.78080714   -5.26879742   -7.08595316    -58.17017659    8.95810105   46.45318555      3.81389322    2.41394872   -0.33859541
    1    1.98122218   -5.15629351   -6.44075446     46.84149395  -23.26245350  -25.04279025      0.25891610   42.63130506    9.85527999
    1    2.81628086   -4.37059664    6.88075743     16.25400015   21.45996279  -17.09958673     -4.28183015   -2.15713733    8.64978815
    8   -1.38674702   -4.95154054    2.67615466     19.39082533   45.47137787   24.19318796     -0.66143709   -3.68032408   -4.34833939
    1   -1.87667576   -4.77616457    1.85566596     -1.63899435  -27.98246860    3.60335104    -15.52291400   39.28290198    2.34266502
    1   -1.52029575   -5.86837036    2.96461161    -15.79498838  -13.25726118  -27.17847515     16.71047698   -5.05983987    4.23791648
    8    3.88147396   -0.68760255    6.12475911      9.66443205   -0.89151377  -13.26205465      1.83009251    0.31286867   -1.73036320
    1    3.50323415    0.17422906    6.30041720     -4.79701197   11.10602435    1.07134973     -5.72194135    2.79814075   -2.32692460
    1    4.74831314   -0.47539034    5.72058342    -10.92885580   -0.24436592    2.37584611     -8.00076007   21.13078955    8.81548716
    8    6.57931815    0.13575247    5.42981779      4.92952757   -8.18294433   -3.34955921      0.10480871   -2.24860196    6.34035761
    1    6.79517548   -0.39561877    6.21058133      3.41476820    3.79020175   -1.92381355     31.32800940    2.28221849  -12.58852854
    1    7.06060295   -0.32202326    4.71511773     -5.01032139    4.25575649    4.98665955     -3.83472522    7.11465592    5.38852968
    8   -1.73143876    6.70489098    3.11656601     15.38289480  -12.26901911    8.42188607      2.05372580    1.19845706    3.14616555
    1   -1.54324998    6.18760858    3.93098390     -4.66654484    8.27124658    1.39608292      6.10022372    9.38682119   11.30418508
    1   -0.95236830    6.45162461    2.59009060     -9.84175764    5.34887172  -10.57579387      9.82859788   -5.78127600  -11.57795862
    8    1.51228046    3.07253714   -5.91344061     45.94634178  -40.38058690  -56.97229444     -6.72841255    0.68606584    3.66803871
    1    0.99193150    3.59876711   -5.36183339    -49.46043244   19.42221244   24.49063089     12.62367774  -12.31058257   12.11268530
    1    0.91562798    2.48525840   -6.46643682      1.18907960   23.01858252   34.75447505    -11.81086823   -0.22023113   28.42153712
    8   -1.32863961    2.85266864   -2.49144279    -21.66802781   34.60595415    0.33100979      4.52499324   -1.74232194    7.72891541
    1   -2.15935653    2.36493419   -2.55159671      7.55243002  -10.20250826   -5.21266308    -25.23297352   -7.29258525    5.74800196
    1   -0.64767955    2.20317009   -2.49616872     12.05251670  -29.27513767   -1.19726313    -17.62876942  -10.92622712   -8.67114724
    8    2.47217609    0.85577840    0.81515217     31.24150085   11.51903044  -31.47892499     -6.89690369   -0.87033711    2.98746933
    1    2.06146628    0.41478183    0.00257224     -8.50609116   10.74078517   44.75926303     -9.36368690   -4.20175316  -23.52761110
    1    1.96511929    0.63805393    1.60622367    -23.22092653  -15.41137242  -12.53288415      4.75696866    5.49614484  -12.72455084
    8    3.93692787    6.80789302   -2.82380017     17.30645660  -16.65602025   -3.23204608     -6.18822789    3.76604983    1.71648550
    1    4.52706516    6.02594469   -3.00543473    -19.74639963   19.35238052    1.63875911     28.40479145    6.32362635   -6.04398400
    1    4.04310411   -6.90851649   -3.61872168      3.19495426   -2.25656579   -0.34276718     17.85802655  -17.05776112  -23.13703514
    8   -4.19106807    1.51185222    3.65496158      8.60531634   24.05748103    1.25830431     -3.20132259   -0.48790340    3.83930249
    1   -3.50459900    0.85665382    3.64969228      3.86145533  -14.91775775    0.45173633    -20.92258879  -20.50457742   11.37402724
    1   -3.66400250    2.33493621    3.80008539    -14.25007726   -8.97489227   -1.90203481    -25.59062062   15.29648408   -4.80145759
    8   -2.96180062    4.00416356    3.86066007    -21.92676109   -4.12641270  -10.42815670     -2.75477220   -0.17313617   -4.75572398
    1   -3.78958172    4.31002846    4.27896857     10.25199352   -1.73412616    5.49948082     21.02365957  -19.16908445    0.37053917
    1   -2.28821345    4.58577300    4.22423053      7.54459806   -0.36912307    9.42419780    -15.77478976    1.53768107   -8.51541682
    8    5.09577630   -1.54913162    0.04602366     -6.64746859   89.02330482    4.97626253     -1.73385452    1.20006019   -1.49640593
    1    4.77449254   -1.11050724   -0.77684744     -2.44480148  -29.75026092    0.45249260     -4.68490495  -16.62766968    2.80647403
    1    5.29670419   -0.67648476    0.52994195     -0.77635062  -56.28590016    1.76995190     -4.87384799    1.75607635    6.93128039
    8    6.05562930    4.09118145    0.46885100    -25.38507472   16.32717422  -18.08656749      3.37569372   -2.55034790    4.76774088
    1    5.74721396    5.01899703    0.68534403     20.90163779  -37.42163980    7.62575389    -17.91131273    8.39306028    3.54530049
    1    6.57765449    3.75807121    1.20923776      1.83256871   16.32245247    6.98318213      5.53943819    9.08420699    0.57204200
    8    5.23544815    4.35998887   -3.63875199    -62.10121135  -23.89124284  -19.68237033      3.38703233   -7.13679730   -1.38822755
    1    6.13097295    4.50410705   -3.56988665     69.22735530   23.33497029   21.00766779     13.35749662    2.41336094   29.63461026
    1    5.23451921    3.90615437   -4.48985502    -16.56259315   -1.89629873   -6.86048244    -21.30386624  -42.39280570  -20.63817916
    8    0.62346289    6.29915224    1.55979420      3.33878315   13.78057946   12.74217395     -0.25076075    5.74914188   -7.57163779
    1    0.99096455    6.82195212    2.31644617     -2.81921700   -3.59020622  -15.12806565     35.42081206  -16.94833851   -5.56258839
    1    0.43036054    6.98107507    0.87735196      4.69258555   -4.98373163    8.58396513    -30.00799959    7.01070387  -25.88289226
    8   -5.32382833    2.44425920   -0.07580434     21.13592983    5.23737844  -36.62529795     -1.23046976   -4.29914849   -0.25654741
    1   -4.50982373    2.83964166    0.32493063    -27.36931834   -4.65733139    7.50232050     -1.10180289  -20.84473177   -5.45095966
    1   -5.91456162    2.21176568    0.64528203      4.82742545    3.25402381   25.47259110      1.84070266   17.07375591   -3.51047922
    8    1.92284930   -2.68675226    5.96217820    -32.42692946  -12.60531143    6.92338873     -0.65794036    1.03836095    1.22789730
    1    2.45914573   -1.86141028    6.11177266    -22.13126346  -10.72605243   10.22023221     30.44595402  -13.98167285    1.81303806
    1    1.03013195   -2.59970735    6.44690121     53.26522995   15.53472791  -15.68800147     26.25336185    5.30882806   21.03895261
    8    3.48612984    5.76650751    1.24571012    -53.20427076    9.33940585   -4.33358841     -2.14285689   -0.04691626    0.76339478
    1    2.55645511    6.06926970    1.31707626     22.12837315   19.52390909   23.56220057      1.02294555   -5.12324290   21.61276810
    1    3.26486419    5.12919603    0.59185818     27.25680445  -32.25730048  -24.35329244      3.20130760    4.08555167   14.78071433
    8   -1.00382815   -2.61512118   -2.62647826     14.09673056  -11.10796909   12.15682599      2.92498499   -0.35139470   10.17670196
    1   -1.21555034   -2.30597599   -3.49449506    -22.56580426   12.95245767  -28.89424830     21.82058597   28.95478530    2.04981482
    1   -0.03818975   -2.63893148   -2.71150983      4.29598035   -6.43679932   21.62044328      8.47283796    3.97297043  -21.28497410
    8   -1.98847434   -0.95807112    5.13546729     14.04374991    1.50751485  -23.80169247     -0.11669952   -0.97325563    0.04838015
    1   -1.21291978   -0.92657643    4.45358685    -24.08478057   -7.66825848   15.91392387    -15.75653910   -3.93679224   17.07012508
    1   -2.76656104   -1.40705939    4.58085396     13.33618311   12.43442075   10.64016379     -2.65490139    7.58686205   -9.40861638
    8    1.99498181   -1.00846135   -5.58451158     25.16684050   22.27348992   -5.59495338      2.78875585   -8.42804963   -2.57781038
    1    2.50313043   -0.13269875   -5.75195308      2.45273621  -22.26528285   -3.74154140     25.89693717  -11.63296899   14.29508328
    1    1.29565611   -0.59531123   -5.14262666    -25.68752689    1.63408833   12.22336858     11.74184452    4.38541486    5.97124501
    8    6.95093355   -4.74766672   -4.27912397     -4.78689079  -13.63941367   -1.65799884      3.24205082   -1.30321753   -3.72484759
    1    6.10053924   -5.24647251   -4.57443839     11.55960047    9.20899595    3.99545196     -0.58539144   46.16332367  -25.09622809
    1    6.98071658   -4.99503256   -3.31281678     -3.64304060   -1.04565300   -2.32009814     -4.61987920   18.26171419    2.88003370
    8    5.64670559   -4.11583775    0.06958548     -4.94387675  -13.44374964   -5.77684211      4.45582078    3.16086616   -3.10154620
    1    5.36539414   -3.13962839    0.04437380      6.70516588    1.15407550    2.90691280      5.55890077   24.37072581  -19.45707280
    1    6.61299640   -4.06017905    0.35536665     -4.02694574    3.60109425    2.53328835     11.75160903   -2.68497290   27.20949278
    8   -1.28464527   -6.20817703   -6.89357619      0.35296332   -6.68956716    8.99242053      0.86583204   -1.21870424   -4.17575643
    1   -1.98931038   -5.75798449    6.87598946     -7.00057793    9.82704700  -12.11879315     17.40885647    9.98191056  -36.41223307
    1   -1.73125954   -7.09128949   -6.75139848      7.38070344   -1.90918346    3.40888843      5.83932746   23.86425151   -1.99712536
    8   -5.67259172   -2.40280785   -4.23790931      8.23070047   36.94666191   -0.89114261      6.43819319   -2.01550575   -2.87614424
    1   -6.17913683   -3.13516024   -4.39204420    -30.49937050  -32.95459039   -7.21478180     -1.94165114    7.82504329  -14.84360602
    1   -4.91795065   -2.87412715   -3.77435532     11.71827580    6.61893534    3.41394124      9.30908842    3.44692976  -16.55453132
    8    6.92925998   -5.95276179   -1.65661891    -22.52889244   19.65028725  -19.44086177     -5.32393679   -1.30664277    3.11247075
    1   -6.54790745   -6.10762087   -1.13956468     11.72700744   -4.28522771   16.48214359      8.03471508   -0.27367770  -23.80425197
    1    6.44328438   -5.20171256   -1.16436525      8.87366586  -15.52226605    0.74070339     -1.94195667   -1.22599890  -43.00924647
    8   -0.88029778    5.34807293    5.22514599     14.55223848    7.27349722  -17.62087445     -5.64408460   -0.19274548   -0.14609864
    1   -1.31067576    5.13369150    6.08022256      8.98622597    4.65687435   16.08790284     -1.43182356   -9.94904107   -6.83161357
    1    0.04844299    5.72139143    5.45723824    -23.14265774   -8.36695966    7.67901465     -2.48909475  -14.39343137    3.86857946
    8   -3.54878856    4.10985731    1.20718461     24.38370046  -11.69035620    0.18907051      7.66874882   -4.69066634    0.70777794
    1   -3.30449104    4.19794832    2.16056583      9.99316948   -6.44436283    5.64170602    -16.87045513   -1.52360380   -7.93612510
    1   -4.33378639    4.64444035    1.27682219    -26.46396760   14.60937644   -7.54531283      9.06976494  -15.32715398    6.01767116
    8   -6.55751450    2.12379095    2.37015856     -9.48508637    4.34150089    4.60266855      3.80064590   -2.40036843   -2.70394915
    1   -5.75975830    1.89345875    2.92890705      2.74328125   -1.55350431   -0.89798286     -1.25531802   -9.29531416   28.60772760
    1    7.03471832    1.49671269    2.70783350      5.15595730   -1.46517861   -3.64869208    -10.79241809   -0.27344223    9.52859539
    8   -6.11889381    2.51747380   -2.70468758     -2.87313664   -9.75292272   21.15283685      6.64864630   -4.98102933    3.95998442
    1   -6.19954786    3.45317056   -3.00704085     -0.75215122    8.79643731    7.21410078     -9.54800412    5.04455283  -17.54503405
    1   -6.14074994    2.59753291   -1.66648386      6.82248418    2.00295486  -21.43616319    -11.64607063   19.69323441   -0.54125264
    8    2.19183376   -2.93522129    1.10739985      2.81345504   -3.89103779   23.14352953     -0.70409442    1.71206648   -0.88396041
    1    2.91485280   -2.33732692    1.00659064     12.67976855   12.16640677  -11.80384504      3.86274299   -9.48206231   18.93463473
    1    2.41205728   -3.18157658    2.05138587     -9.30554045   -7.63603251  -11.65635752      1.52877797    5.18434578  -11.46903090
    8    5.92409559    6.93631035    1.60878442     10.51065521   15.14909926   -1.12260743      0.72447747    0.13013075   -3.79426845
    1    5.04702822    6.51121372    1.56004546    -16.56409609    0.91224594    0.84589322    -14.59217939    9.62993089    3.88722279
    1    5.68710406   -6.35301138    1.70798878      5.24127891  -22.20541792   -1.94679593      4.95064509   -7.43400957   -1.41668079
    8    4.91507212    3.71560072    4.24330359      0.51160122    7.96157174    3.91418427      1.53274442    5.03537449    7.97371627
    1    5.59053341    3.74325749    4.99012809      0.92075972  -10.21475392  -18.60901163     15.20713981  -34.53158792  -26.58987546
    1    5.28557867    3.16554906    3.51142959      5.54517960    3.12290074   14.33754355     11.13388215    6.97474573   14.31667148
    8    5.66484047    3.38202857   -6.30741521      7.21663212   17.45502675   -1.36683531      0.78320946    2.12451185    1.28216635
    1    6.32643165    3.69622965   -6.96876107      5.15982572  -13.21931681    2.31823035     -0.98031328   -3.49181507   -0.16922463
    1    4.95323573    4.02598028   -6.61137240    -13.02047628   -9.28698852    4.84356880     22.77371091  -14.61916508    5.58080903
    8   -4.97983466    6.68205813   -7.02998899     32.71769793  -16.04932943    7.97887715     -1.05339211    0.76946266   -1.17050273
    1   -5.87561257    6.84273299    6.93116124    -17.83279643    7.80643328   -2.13524861     11.81045692   13.06338602   18.53125340
    1   -5.00421341    6.74783235   -6.01955991     -8.35345642    6.14989257  -11.41286589    -17.80777043   -7.88574289    8.34344169
    8    5.73499009   -3.67191976    4.34399951      8.73375507    6.60828674   13.48977214     -3.38806733    0.01013913    3.90872452
    1    5.99569655   -4.51733967    3.94952988      6.11588028   -4.16456626   -2.55785864     -0.93468965   -3.83209390  -27.40717749
    1    6.46075893   -3.55921367    5.03479280    -14.72720458   -1.70488542   -8.52006319     23.56179409   -2.74349397   -4.56685119
    8    0.73754710   -5.39105723   -5.30671712    -10.77037692    5.67427424    1.91105581      2.88221010   -4.69636320   -0.89944937
    1    0.43765262   -5.67114546   -4.39547676      3.67298689   -2.44446890    2.34306125      0.43804444  -14.70356777   -0.28286195
    1   -0.15803082   -5.53412119   -5.76790325     11.34768063   -1.04068164   -3.99131424      1.71630732  -10.63743519    4.23895997
    8   -6.44807721   -1.14352573    2.85284891     27.98118682   17.39757336   10.65546149      0.66915531    1.87053727   -2.50887240
    1    6.99128059   -1.35828915    2.51119485    -26.91267176   -9.59380638  -10.15625904     -4.39860926  -20.90802401  -13.37592444
    1   -6.03974393   -0.70680125    2.03531133    -10.58479074   -3.09834339    0.55176798     12.10734727   28.06745141    3.33428507
    8   -2.91242507   -0.01846921   -6.83326613     12.16102598    2.40733290   -4.79556612     -2.41751871   -1.76941668   -8.28881472
    1   -3.88259652   -0.21379602   -6.91406517    -10.62077957   -0.62978037    6.44805489     19.03713882  -16.50395160   -7.63494442
    1   -2.63419677   -0.27307034    6.49623320      2.07088023   -2.16297580    0.47723426      3.66169454   17.79851826   -9.51976385
    8   -2.56894082   -4.84615595    5.41503210    -24.11739955   18.57740208  -31.32062549     -4.56679244    9.06838444   -2.13541529
    1   -3.59035261   -4.60795174    5.22522158     33.79123221  -12.59334283   11.23844164     -0.76966577  -17.66451131    4.15925602
    1   -2.20045582   -4.88192853    4.46008202    -10.04249717    2.02714076   22.57243773     -3.00562923    7.72435088   -4.63578555
    8   -1.70041826    5.38184661   -6.39449453      8.26022445    1.37509533  -12.28750856     -0.92676639   -1.49649358   -2.49606254
    1   -1.11959368    5.01957380   -5.64680157     -5.75679281    3.04984343    2.06303320     33.94232303   29.58242486   -0.40272798
    1   -2.56856161    5.03537438   -6.20414299     -9.71269295   -5.76746264   10.96626722     -3.07015138   -2.99423714  -16.62628236
    8    4.52969754   -5.72772642   -5.08151443     -1.93627176   21.98947756    5.76542611      2.46292610    1.42015510   -4.25757396