 BEGIN_INFO
   #
   # This is a XCRYSDEN-Structure-File
   # aimed for Visualization of Fermi Surface
   #
   # Case: Tight-binding calculation
   #
   # Launch as: xcrysden --xsf HICOLM.XSF
   #
 END_INFO
 # estrutura final
CRYSTAL
PRIMVEC
      14.31054391       0.00000000       0.00000000
       0.00000000      14.31054391       0.00000000
       0.00000000       0.00000000      14.31054391
PRIMCOORD
  300    1
    8   -3.29253068   -5.12969860   -0.30313453     36.23550251   -7.58800409   26.10519310     -1.19983292   -6.77309097    6.05241533
    1   -3.35471041   -4.91919824    0.65666567     -5.53193237    1.78332088  -19.94160687      9.49383714  -22.42874214  -22.93774159
    1   -2.40063786   -5.55298616   -0.34478251    -28.35874222   10.56080395   -4.94284768     17.01482769    0.35167513   10.43825225
    8    1.55767827   -5.39284924    1.59730447    -13.27999844   -7.32535935  -16.10798426     -5.26970895    5.36338157    1.03837438
    1    1.57672820   -4.43321413    1.73733137      6.73373571   -1.90624118   12.43207480     15.77739670   26.86935140   -7.27296345
    1    2.03765336   -5.76035498    2.35180816      8.88204173    6.30188124    8.69446294     19.83185956   20.80252865  -12.22207303
    8   -7.12064653    1.73652732   -5.18686791      0.38749477   -5.70034291   -2.37684301      4.79400863    0.55462931   -1.97256766
    1   -6.74050207    2.48734136   -5.64678758     -2.18816827   18.44495390  -12.66352698     -6.41403286  -20.01495097   18.24213121
    1   -6.36109309    1.45804009   -4.68619611      5.63573243  -12.52808186   13.44202140    -10.59678636  -26.09513755  -24.09730385
    8    2.76552559    3.90061833    6.87445949     42.89044291  -29.26847930    3.55499268    -10.14228813    3.34384477    3.03397075
    1    3.55742829    3.91091742   -6.84135826    -21.34778912   15.50863681   -0.47220856     15.26735696  -23.42841319  -12.32436976
    1    3.04918531    3.10865555    6.34716589    -25.22089617   11.81690949   -0.72886500     46.07344226   -3.52931401   15.39689866
    8   -3.89395435   -6.53084086   -6.05657074     -5.90764786    1.31108582    1.00687057      3.45008782   -2.43059359    1.72623464
    1   -3.23661887   -6.20201002   -5.41716602     -4.36495931   -1.02483298    0.18130685     -1.12629151  -36.86490298  -26.41247767
    1   -4.71595107   -6.56937482   -5.52745696      9.19749960    5.04856529   -1.62464729     10.49011376   -9.07330153  -11.01896051
    8   -6.92180449    0.36603556   -2.36017968     -9.68927059  -22.47033553  -28.28341612      3.94176251   -1.87325340    2.76571738
    1    6.61567488    0.16899359   -2.96935679     35.75039083    7.00473022   15.21566264     16.83029582  -17.02086968    5.16695247
    1   -6.17007770    0.58560957   -2.94828577     -4.90549432   -5.05551412    0.46049742    -10.77063266   -5.11126659  -11.88138768
    8    5.92829143    3.17554468   -2.30203706     36.92070819  -30.78091045  -18.62470605     -0.05315835    4.65186608    5.47208710
    1    5.37786107    3.92389280   -2.26327253    -22.79772661   36.27604369    3.53509373    -13.29205443   29.01493753  -27.05903028
    1    6.69191356    3.45290098   -2.85959451    -12.99013731   -2.41432799   15.86628740    -11.01711855   24.04626945  -30.19615748
    8    3.28806820    1.23317325   -5.91903228     19.30614538   57.20278741   16.27713930     -3.16347833   -2.59787242  -11.19770968
    1    3.66905595    1.13336729   -6.79196682      1.30425303    2.61609027  -11.53792921     -4.94414046  -43.84456204   25.10937503
    1    3.62705716    2.15070222   -5.63235372    -12.71510457  -48.72704829  -13.33331668    -28.26158783    9.77822433  -15.90882737
    8   -4.60725943    0.88242654   -3.57879323     29.11714696  -75.27535600   -3.86354556      2.26701342    3.60134907   -1.37723563
    1   -3.92820108    0.15175136   -3.72866559    -41.10017393   22.97901425   16.57696147     13.22736699  -14.87593985   -8.28537727
    1   -4.14852374    1.57441685   -4.00357095      9.09981890   49.53754402  -18.21894660     -1.93326418  -17.40645680   -6.95165970
    8    3.16767118   -6.17643459    3.84115654     30.17457491   -5.87517394    2.34311118     -2.22599226    3.86196961    4.26593395
    1    4.14986781   -6.05027602    4.01272758    -27.75051628    3.08339193  -10.62026723      1.25515159  -41.96530187  -27.01639981
    1    3.07983778   -7.12938604    4.02607872     -6.47058273   -0.90785690    1.14789618     20.90673780  -18.32055519    1.91228240
    8    3.01265643   -2.71266929    0.15996564     15.49345314   25.73249593   28.28121939      8.13631867   -2.38124919    0.79680460
    1    3.05329423   -3.01365086    1.07721877     -6.59689099  -24.20403756   -1.03202543      1.02296079   -6.15609764    2.10844522
    1    3.16005962   -1.76067219    0.36488508     -4.22013325   -0.61770449  -26.78142650      4.10813891   20.69666229    8.69560902
    8   -3.72741370    3.16939462   -4.61514652     32.22194322    4.53622290   25.01358792      1.53978668   -0.08840288    5.02170843
    1   -2.82234107    3.33962266   -4.23686043    -11.49343328  -17.67084439   -3.14142211      5.45506294   -6.46623972   13.00053404
    1   -3.73440435    3.87055228   -5.25763866     -8.83967743   10.09405197  -25.95197396     30.86548648    9.19993722    4.91910385
    8    0.46282131    1.90290562   -1.38709951    -16.52329549   35.36553379   40.13201354      1.65212115   -0.94797182    8.21813269
    1    1.05021160    2.37485385   -1.98825621     10.71968878  -20.73957201  -16.08156915      1.15305210    3.90742948    4.02540634
    1    0.21045452    1.05083866   -1.76940205     10.71137549   -3.69806514  -26.64520729     26.73749174    3.05221743  -14.95487017
    8    4.73858000    3.57956900   -5.64650370     -2.13527268    4.84223721    1.63948348     -3.92101625   -2.72207779   -1.01419155
    1    4.54153698    4.43012444   -5.21606792     11.41520773   -3.27347742    1.68459569     -8.76378965   45.98206389   15.84391416
    1    5.66329605    3.38705793   -5.40136052     -9.94018134    2.48198236    0.74256985     26.01798045  -22.34352695  -25.58430925
    8    1.83431488   -0.74468596   -5.29878582    -14.05145141   21.78133509  -41.49450429      4.97259837   -2.75591507    0.09804656
    1    1.32285062   -1.00063174   -6.11184695      2.65103650   -1.97916913   18.59840123      1.71448658    1.30517456   -5.94556927
    1    2.34507719    0.04004014   -5.69537294    -10.20486884  -23.01483765   30.95407955     20.03987157   10.19293137   21.98088706
    8    5.84758953   -6.02789693    3.93204979     -2.74926884  -13.56923409  -27.69469965      3.47947494   -4.45671969    5.80095042
    1    6.37515266   -6.42326618    4.65867215     -0.82248011    1.38713378   -3.29265996     -2.72857415   16.44867000  -11.75606628
    1    6.05359068   -6.58771550    3.13234698     -2.17455666   13.98720787   22.32606671     -2.59919981   19.63062583   17.05118855
    8   -5.24051045    5.50818519    5.54902800     39.67970405  -44.32109264   -5.83172360     -6.00195804   -1.14210974   -9.47646041
    1   -4.31082678    5.89233314    5.54115072    -39.87565537    8.35698309    3.26110033     10.20935178  -15.12424737  -11.47138580
    1   -5.85966179    6.21660761    5.61755540     -4.49818437   37.09695607    4.09722501     -4.86875379   14.80330640   -5.59227474
    8    4.09164822   -1.51468114   -6.55558265     21.10564712    3.17529455  -35.83000471      2.36264119    4.72891180   -2.92464144
    1    3.84577503   -1.28447172   -5.68141480    -16.15702881    0.35942811   33.50222319    -31.86108787   16.52832053   21.64493913
    1    4.75599588   -0.83044194   -6.73457554      5.61738157   -8.08426275   -8.12831238     -2.06771952   10.15539170   20.53841061
    8   -1.08340451   -2.07430172    3.92099834    -58.52601193    1.45709689  -14.75492714     -3.03723869   -6.34546672   -6.20204952
    1   -1.91264361   -1.62850330    3.49523999     59.84133640  -17.33722035   23.66450960     19.38496181    4.39219348   11.19642777
    1   -0.38511819   -1.38446850    3.91907300    -12.63455853    9.59959532  -11.43251750    -31.09920940   -9.95680675   -3.32690450
    8    2.90825078    0.22992453   -2.96347203    -43.59172622  -47.82048425  -43.35736902     -3.20798706   -0.46079758   -3.26541077
    1    2.31342097    0.07607566   -3.77280261     28.19268827  -15.78416669   43.43589873    -17.60856711   30.89206442    7.60691623
    1    3.10232081    1.11383586   -3.12516609     19.00015199   56.54651562   10.96679713      8.46775852    6.28539860   17.13729855
    8    1.96900631   -2.82785135    2.63760414    -21.20675395  -10.12468666  -58.41742994      6.15843329    0.80080760   -0.48258259
    1    1.93427381   -2.57529531    3.54322295     -4.39818681   18.33968355   27.89800087      4.52660409   23.43406928   16.90923307
    1    1.22219472   -2.35552159    2.17482599     22.23221168   -6.08461246   31.18448308     39.04021717   -2.64358550  -23.73297623
    8   -0.99826690   -1.61310221    0.74764074     14.35627749    0.44083704  -34.00055432     -0.95275411    0.89057067   -4.64009277
    1   -0.56764207   -1.74234822   -0.13621473     -6.00889190   -6.45697095   23.62090421     23.78342762   -1.78092716  -10.43055827
    1   -0.95420330   -0.63860462    0.81524662     -2.66587896   -0.49809747    9.99943099     13.47685760   17.42456804   20.21349441
    8    6.30340291   -0.94192388    3.26957678    -22.13105102  -34.71898869  -12.12161007      1.08747788   -0.34067819    0.95274612
    1    6.16613562   -0.08721554    2.88146928      6.63795015   21.83212224    2.99374022      0.40022435   15.62202038  -22.43673596
    1    6.84872268   -0.80408093    4.04375957     18.33129886   22.82343293    7.38690882      7.37377148    6.99332193   18.23735372
    8    2.57300799    3.00394697   -2.83878641    -44.24757321   16.21064063  -56.00300456     -5.84021822   -0.83699096    2.25896905
    1    2.01163294    3.43776644   -3.58156125     31.86073569  -22.81201623   41.47849693     34.31299850   21.29115587    1.70821334
    1    3.02167412    3.75911624   -2.48581794     14.32829776   10.53807668   14.15766174     -1.62481635    7.90024165    7.19286339
    8   -6.41629912    4.95812628    0.19762653    -24.88670534   51.86643817   27.08814527     -4.96853061    3.46240802    4.85963814
    1   -7.11544597    4.35036344    0.53217205     18.85752571  -13.80701762  -16.13583063     -0.81478423   14.63841518   12.09031133
    1   -5.78535054    4.49082450   -0.32183379      0.49302579  -39.68965247   -9.52104278      0.89881285   -6.44005629    6.49999677
    8    2.05105317   -4.70586704    5.78848624    -10.15348100   56.85521935   -1.73900051      1.95907731   -4.65646048    3.02987548
    1    2.26611913   -5.07548777    4.89073602      6.45689410   16.56139056   17.78887567    -12.82804031  -42.67782270   22.28295797
    1    2.16459788   -3.67274332    5.72421110      1.33451064  -77.50563476  -11.32279864      1.71566914  -15.70910259  -16.41932401
    8    1.57775837   -3.04341395   -3.87371709    -19.45432569  -19.57872638    3.72644308     -6.27607369    3.62883005    0.36325816
    1    0.94782886   -3.66573278   -4.30731524     13.16426984   14.25631768    5.21972121     10.11845891   39.52740974  -26.44610058
    1    1.51252275   -2.25216448   -4.43428755      7.47885200    5.77397830   -1.21060985    -23.62035143  -30.27928961  -18.67878313
    8    2.78843207    0.81632376    2.58606606     -1.62436053  -48.73402235  -27.92940703      6.12565617    1.35270266   -6.47372858
    1    2.88990875    0.48035160    1.64880874     -9.47836652   -0.04458449   27.85686229    -17.38457390   29.90884095   14.11445799
    1    3.12195000    1.67877694    2.48444817     11.95193808   49.82137305    4.53714774    -20.06099410   29.24030236  -14.84691304
    8   -2.45327917    2.28442318    5.53806148    -14.86630000  -54.16095740  -23.86741384      1.90308660   -2.27441594    2.97652925
    1   -1.74671738    2.66779924    6.06156079     16.59265308   -3.43293774   14.98609681     15.70248054   -1.32178202   10.04836369
    1   -2.27546878    1.28432408    5.49594872     -0.08713301   55.02955084   12.72132602     -7.45327049    8.62682355   25.83982085
    8    3.20293407   -0.06084385    0.05277270    -17.68292404  -15.92061488   41.86225319     -1.74823417    5.94516633    5.71555015
    1    4.08320961    0.30900215   -0.00760246     16.07303762   11.50662329  -26.26928543    -13.29704791    3.63336078   -2.29399397
    1    2.84938297   -0.11761981   -0.83592010      8.60458400   13.17363780  -21.88891727    -16.52753454   10.45048089  -16.90981780
    8   -5.25230913   -6.45745705    1.65463840    -21.35070964    5.18328787  -14.22992350      0.47402153   -1.41993328    0.15728525
    1   -4.88768720   -6.19556194    2.49223888     12.91805477   -1.62915498   10.99623336    -17.14576983   11.36216476    5.93485621
    1   -4.76726015    7.06418412    1.38564988      8.60876933   -4.60180205    8.05740377    -10.67018687  -21.03713966   -3.57761641
    8    1.39393239    4.65970806   -4.55432226    -14.54231821   17.04807061   -4.55234984     -3.01604353   -1.96811477    1.01493568
    1    0.94794879    5.52676837   -4.67543258      3.14463670  -11.96020631    4.75643366    -10.13030093   -7.91773041   -5.18822790
    1    1.94824919    4.62259482   -5.33241452      6.60364657   -3.20230569   -8.38896193      2.17357074   14.64954317    1.53663856
    8   -4.87589894   -3.12045647    3.55409946    -20.45026374    5.08212913  -13.17931485     -9.10513013   -1.16064711    6.54655372
    1   -5.54514108   -2.92211246    2.85384662     13.94624335   -7.66003151   13.24603959      7.97362538   26.82931697   -2.99037074
    1   -4.58155821   -2.23546415    3.82036186      0.09892785   -4.82511857   -2.96397631    -12.86034168   18.17514908   -4.26172159
    8    4.13183660   -4.33296335   -6.14530180     10.91036008  -27.61593742    1.10838662     -3.15685852    2.52380259   -6.07734809
    1    3.87294132   -4.75589817   -6.95810361     -0.42018519  -14.84784320   -8.68580536      7.46028467   17.77656668   21.01724701
    1    3.68921914   -3.51642120   -6.24353848     -8.00695158   38.09133481    7.32623113     -3.68654832   11.82586016  -10.18503640
    8   -2.33923103   -0.70104803    6.26766653      8.10464716    5.35858151   18.77644309      0.72460175    0.57233867   -4.05333175
    1   -2.72627691   -1.16229874    7.04422114     -4.62462632    3.97532386  -19.05004753      3.88455618  -10.08987149  -12.49562080
    1   -2.75329547   -1.10971861    5.50433133     -7.09699945   -2.30831190   -1.13265375     -2.48483087    4.59276241    0.47791392
    8   -3.49051661    5.62554528    2.39096183      4.89595144    9.25312184   27.71369207     -2.39675048   -5.25977135   -1.39014487
    1   -3.50893253    5.99939158    3.29363213     -8.50145739   -0.55566622  -13.94658220     -9.54797346   15.38901939   28.54924636
    1   -2.62023674    5.22585813    2.39508669      6.04923649   -8.48201569  -11.53250339     -5.64242912  -12.37960498  -33.38445519
    8   -0.04404173    5.72257221    5.14029775     22.39370780  -16.95286372  -48.82587262      2.33638988   -0.57375914    3.43975180
    1   -0.12492914    5.09458500    5.87248530    -12.65484066   19.84477945   17.38871175      4.22854651    1.37145748    7.24987730
    1   -0.26390923    6.62404210    5.41196393     -5.39007638   -3.39289140   29.64328385     30.81016831   22.79345827   -8.99633028
    8   -1.21770766    3.64445504   -3.71383122     41.60743320   32.44318647   15.94990840      0.70327218    0.52780268    2.77187575
    1   -1.49734627    4.46644665   -3.29398326    -32.14326931   -2.19265133   -2.95446703     -8.06107020  -18.73188872   11.34113712
    1   -0.27008639    3.89641119   -3.73496478     -7.14628098  -32.49552901  -18.07269053     -6.44654174   -0.09738657   -8.03586946
    8    3.42857054    3.41244394    2.52023620     22.09131290  -36.15887994    0.96995655      3.89959011    0.87768690   -0.89726317
    1    2.95817424    3.91758253    1.84393664    -16.19913775   20.64771614   -2.68590637      6.45738085    2.49231172   -5.18031846
    1    3.46527419    3.97637325    3.28279557     -8.41097993   22.53894714    8.10034317     13.72914082   -1.44215513   -1.17735110
    8    4.55947656    6.37088910   -4.31315732    -28.48554189  -46.43608031   36.90732966     -0.40704165    1.86679676   -1.31935374
    1    4.74654158   -7.06089970   -4.00264296      5.34211541   24.06491030    1.89985406      3.76297709   -5.74577146   17.28388651
    1    4.16258771    5.94023476   -3.48896255     18.80565814   19.47596493  -33.43406016     10.21627581   33.98906532    5.02988918
    8   -0.78153229    1.04813018    0.80085385     -8.15827370   -1.38045315   25.06225364     -4.27081014   -0.00714152    1.90496901
    1   -0.40385529    1.76384490    0.25998292      7.37551389   -3.08139694   -1.12704024    -26.46002054  -16.73346197  -21.86158704
    1   -0.63675341    1.35555961    1.73344935     -4.52576990    2.10732244  -22.74162883      3.50205695  -13.49359398   -1.97083767
    8   -5.11568067    1.93381841    6.19946029      3.07647331   25.96594670   52.82765249      7.98361099   -2.89944058   -8.32453654
    1   -5.40030424    2.44024664    7.02527533      2.15071298  -22.41972016  -43.24042823    -29.94305242   23.42292186    6.19413169
    1   -4.15626227    2.14770929    6.19038423     -8.47947928   -6.59814589  -17.06516744    -13.64268195   18.43331461    6.71708868
    8    5.73820513    1.11082780   -0.67380076    -29.51667782  -15.19795881   54.21493218     -7.75752318    0.24349791   -0.82889268
    1    6.53354362    0.71843245   -1.03713833     14.91482710  -15.86248696   -5.86311900     16.98582660  -16.18427230   -9.09952907
    1    5.67360604    1.84067687   -1.26498589    -11.57608653   37.37575716  -20.94636670      0.78578904  -20.53323202   -6.57622420
    8    5.70896088    3.55294022    1.19616079     -1.99837574   10.26524227    0.72672782      0.16113806    2.80813318   -0.16345799
    1    5.65591171    2.66895172    0.80068406     -4.44896878    1.36008514    2.89564923     18.04046707   11.22988046   -8.38576031
    1    4.85703675    3.66504694    1.69168935     15.94811026  -14.26330424  -11.09733839      7.40075786  -18.24470897  -10.77774380
    8   -6.11223005   -6.23862398   -4.08708972    -67.57826936   35.02152311   15.24399849      1.35772148    1.79366703   -0.92114984
    1   -5.75667862   -6.41054566   -3.19888777     21.37251191  -11.67492604    4.48708602      2.07601322   21.35180572    3.76773143
    1   -6.95861191   -5.73722295   -3.79543068     41.37917419  -25.31956609  -37.39087122      5.88019375  -44.41788825   -9.05501646
    8    2.29559192   -5.99636835   -0.91027574     52.72209938   -3.10619680   -2.14999483      5.26198664    0.89272583   -1.24654834
    1    3.29030796   -5.92122304   -0.67678969    -39.58878758   -4.44385455  -20.06183477     20.78705279   15.40667247   21.69740322
    1    1.92162564   -5.69478192   -0.08850153    -14.73820088    7.92410790   18.86950602      9.67542936   16.95547136  -14.91369105
    8    6.48131116    7.04344089    1.50293809      1.43183845  -27.48688053   -2.34637435      0.36644165   -2.86399957   -3.33007129
    1    6.54466248    6.14086165    1.10177377     -3.97872551   21.75478475    7.32685077      9.15912047   17.48126588    3.54741113
    1   -6.88883731   -7.08379942    1.66248012      2.81456846    8.01668834   -2.57095831     19.09580773    6.94024793   -5.67069909
    8    6.82985475    6.12092393   -5.62020735     19.24100800  -18.70303006  -24.69462276     -8.69197392    0.30074285   -0.34886897
    1   -7.00403848    6.87525670   -5.27516554      5.17896866   16.13541232   15.55705706      5.19686221    3.57088818   -9.69440193
    1    5.94800454    6.21237111   -5.24929299    -16.43393427    7.24813813   11.69782459    -20.54199287  -19.83167049    8.50899221
    8    1.93686673    4.98283736    1.04214798    -74.95246603   -9.40087880   66.41545687     -2.62732863   -6.12504663   -4.23917266
    1    0.99061135    4.98885057    1.47294567     72.32248602   -5.40185354  -22.64984586     32.65163148    4.94723647  -12.92143931
    1    1.74809819    5.39777099    0.21087564      3.45250287    7.30561546  -32.66131697     -4.36086859  -10.64917132   18.29630858
    8    0.86184811   -2.19311692   -1.25968207      6.16713713   -0.83688980   43.65098411      7.03749567   -0.41010347    0.36437895
    1    1.08018777   -2.51722327   -2.11497100     10.02647230  -12.62613984  -31.96208351      1.45835297   -5.26958531    1.67327870
    1    1.62474255   -2.53063657   -0.68928703    -25.37168657   14.26952330  -20.44772067     -3.50342106    4.36798528   -4.08636504
    8   -3.59165575   -0.66412134    3.21212292     37.97858287  -24.64489148    1.62512904      6.81056260   -0.67122802   -1.35753934
    1   -3.94311394   -0.87563036    2.27947502     -7.32996396   17.04734733   10.33728339     -8.98691989  -13.96506063   -7.82468228
    1   -4.27598077   -0.25418404    3.71495767    -24.71270870   11.73943902   -2.52127430     -7.32892390   -7.46479680    4.60486585
    8   -0.45614575    6.90769056   -5.75975738     25.39261034    0.74794939  -45.33850258      5.54677150    2.91670011    3.45089277
    1   -0.69755437   -6.52852511   -5.51680699    -10.33198236   11.64521721   23.16988185     -3.31050381   -7.93005486   -6.90815271
    1   -0.26295136   -7.15406753   -6.72632648     -3.89458707  -13.68958400   20.95959878     19.14047456  -17.89868071   17.12917325
    8    5.23142493   -1.32681474   -3.63338891     19.26774314   19.30253603  -11.10666522     -5.37919888    0.57274237    0.02704194
    1    5.06165580   -2.22491702   -3.34774392     -8.54473643  -17.27792276    6.17365859      2.72662146   -7.34282057   37.21791538
    1    4.58173424   -0.87197558   -3.07368771    -10.49379516    7.35222926   -1.67355927     11.84764313   16.52717137    6.35401665
    8    4.84001629   -5.85419954   -0.27441607     15.72035035    4.75200637   -9.47505764     -1.69452534   -7.46459771    4.18700236
    1    5.36435177   -6.07970655    0.54619386     -0.02744207   -2.82728836   -6.14126206    -21.37870281  -15.12661544  -14.56457762
    1    5.55838022   -5.53512075   -0.90427356     -9.23355327   -3.76578496   16.40004518      3.48861191    8.70252452   29.89872236
    8   -4.17517832   -4.36779284    5.89298676     15.06809444    1.19490971    8.08495293     -0.03521332    3.57743407    0.52395742
    1   -4.90099371   -4.66841083    6.44676387    -12.18578141   -2.52717988    5.32969238     14.46416486   23.90422495  -14.65980742
    1   -4.65164628   -4.14525990    5.06805536     -0.73950086    5.84216701  -11.75793134     12.00486812   -0.82486100    2.15117928
    8   -6.85014468   -2.19745324   -5.13272232     -0.04018032   -1.00893685    5.54714997      0.30598501    1.78000320    2.42593237
    1   -6.49670643   -2.69356949   -4.29093965    -22.57614326   21.30824060  -13.25556217     -3.71998952  -34.21082891   20.64382713
    1    6.56982350   -1.70630863   -4.88110655     27.52368325  -20.86074811    9.03609206      1.58579868    6.12358924   12.96832211
    8    5.56519095   -5.22765108   -4.01460197    -16.75610000    5.02096367   11.24065397      3.24090872    1.57138728    6.09866271
    1    4.97438451   -4.75671391   -3.32656126     10.44204412   -3.16983986  -16.15228642      9.47335079   -5.94963427    7.14929184
    1    5.10631245   -4.95323887   -4.89129437      2.32360622    2.67508281    9.96899302    -13.10138509   19.01156662   -9.58413881
    8   -0.73866755    2.50876045    3.10264316      9.79527925   10.61463715   -4.69551535     -6.13594121    2.02628332    0.08438419
    1   -1.48251266    2.73095163    3.69405537     -2.91943766   -0.92589954    3.63998906     -0.65451074    7.23027960   14.29633589
    1   -0.44322725    3.43500592    2.79348610     -8.71599558  -11.19575320    5.25900984     -7.06765086   19.10715581    2.11189911
    8   -6.20697165    1.74159950    1.74834176      4.15811334    4.62472782   -1.01183281      3.46493952    3.37709079   -1.99798311
    1   -6.18633819    2.50271276    2.38896291     -2.41432226   -3.95386166    1.88482730    -15.08220718   13.37427197    4.07692046
    1   -5.90181090    2.23225628    0.96623750     -0.70313808   -1.07240673   -9.57253228     32.21943779   -5.44549892   33.78660475
    8    6.23241935    0.32255336    6.92691842     -5.95565988    7.31886476   15.50620109     -1.72913095    1.22600866   -3.62480187
    1    6.60896028    0.67663205   -6.51432082     -0.92428806   -4.91644977   -7.08822980    -22.23392591   -2.63042974    4.12868141
    1    5.80937742    1.14197035    6.59972306      4.09176405   -4.04765066   -6.48002554     11.52868708   -9.73645126    4.11319092
    8   -5.75717790    3.97794602   -3.11856272     26.50087135  -29.05162872   -4.46019118      2.12847671   -1.51824666    2.27579544
    1   -5.74258440    4.81157585   -3.54116241     -3.69338512   21.42387274   -6.12106723    -18.14048672   -9.31831639    3.20959687
    1   -4.86719618    3.57856825   -3.52944638    -27.52905749    9.24166977    3.92048998      9.42633880  -12.56666755   29.03599280
    8    3.11893163   -2.26805612    5.18221683     31.16147612    8.34878959   22.13811819      5.94685381    5.72624961   -6.03385656
    1    4.08374662   -2.49454466    4.92905370    -23.73817217    1.05656012    1.54243480      3.96155518    4.02536890   15.15953045
    1    3.33104934   -1.82885039    6.08848521     -7.27947838   -9.01643211  -14.59438855    -21.82067066  -28.74254078   17.98031214
    8    4.15076368    5.26842073   -1.68417018     20.58433593    0.27381230  -11.00129721      0.70194798   -0.63036174    1.91013082
    1    4.73232436    5.71849691   -1.01868453     -8.28307121   -2.83324393   -2.21216107     21.68495419    9.68258476  -30.77441637
    1    3.28608643    5.30310862   -1.27461557    -15.24242998    4.82595926    9.24183106    -21.36266185   15.22024050   -9.08466437
    8    6.37910641    2.85652833    4.77583607     -4.92757442    8.17528638  -17.88340551     -7.45744034   -6.48696725    0.45251250
    1    6.66555460    3.20648827    3.87548169     -5.99548083   -7.16859413   10.68940007    -13.20853259   -6.54567245   -4.14570207
    1    7.07879764    3.26751154    5.29159634      5.17527164   -2.24911312    8.34232018    -34.08732034    6.60448992  -19.96261098
    8   -6.17541919    3.92545450   -6.47545148      4.30496877   -4.06375609    1.77645412     -4.01819545   -0.92089010    3.18463543
    1   -5.62373098    4.41256106   -7.11555770      4.90461219    1.34119456  -10.08438713      0.81261556   11.40925256   13.27438101
    1   -6.65300687    4.71287369   -6.11474821     -8.03982898    5.85942993    3.78360605     17.89555966  -12.17686770   14.53799739
    8   -0.59799273    3.47920723   -7.08003759     41.18888249  -13.11259127  -10.43822725     -0.75324553    1.65171790   -6.49362430
    1    0.30819619    3.51950991   -6.63873089    -19.51020932   -4.71146874   -8.83958447      4.06654645   13.19078208  -23.13757532
    1   -1.05290904    4.16254985   -6.64189568    -22.39969115   18.11727432   16.48661741     12.48143676    4.37991456  -18.82914835
    8   -6.56020046   -4.67518715   -0.11481192     -8.46922048   -2.39173872  -14.58225875      2.15694471   -2.40050435    4.42098978
    1   -6.29386497   -5.36579099    0.48703058     10.09419188  -20.90159818    0.53972588     -3.01549081    6.01004259  -23.82222412
    1   -6.57447748   -3.99468629    0.54948609     -2.35461639   27.25517654    7.10559246      2.60989001   18.73637661   12.37105918
    8   -1.96994307   -5.68197894   -4.13633563    -10.26405612  -18.21216601    5.02780455     -0.00362830   -0.15196818    4.20102596
    1   -2.43230099   -5.20967769   -3.42062071     -6.79340748   11.90099599    4.88234596      6.89071760   12.31897185   18.07904395
    1   -1.43801684   -4.97200689   -4.48913227     10.74627301   19.19252100   -7.87150951     20.51699121   14.58086593   10.32199409
    8    3.83592395    1.82293118    5.53058360     27.95922776   29.20694900   28.32070237      4.01872545    1.78939906   -4.30979628
    1    4.66386812    2.28598580    5.13440673     -9.07660911  -10.50191321    2.53019617    -18.71568478   15.19431834  -12.24017179
    1    3.50353733    1.35705631    4.82464360    -11.07066589  -19.92795340  -33.90081429     -0.22445482   -7.60198526   31.50734222
    8    0.49943724   -1.04921808    6.67493098     -6.12714347   -3.43663450    8.96219666     -6.69960538   -2.94938064   -9.53154128
    1   -0.46365951   -1.03144097    6.46393753      0.11744721    4.28787952   -0.90194432      2.53451248  -15.87319728   -8.16642062
    1    0.89122710   -0.91361060    5.81281449      3.53423212    1.71050336   -9.46485295     16.22796581   12.23754868   13.25948840
    8   -6.80372331   -4.07232172    6.84204133     11.61268094  -15.32475819   -1.23471337     -8.04200855    2.68647323   -4.57856903
    1   -6.98814062   -3.51708504   -6.71750040     -4.05825187   10.09914378   18.33559433      4.42931184  -15.61698629   12.03120226
    1    7.07945445   -3.56266766    6.14140636    -12.03378516    2.41691852  -14.97100715    -11.23247554  -17.81845486   -5.96688740
    8   -5.12234004    2.60206258   -0.90832211    -12.80733043   13.79201248  -33.25405123      6.57631880   -2.39413866    2.57012742
    1   -5.46547082    3.01458138   -1.81873334      4.27258026    0.82680148   33.28799017    -17.74818301    1.30078075    6.68687389
    1   -4.90157474    1.75579411   -1.30206950      8.35258360  -13.25806153    5.49350650      1.60122809  -14.50186837   12.89541755
    8    3.92949766   -3.27997827   -2.31570530    -21.84766872   -4.34665342    2.30708591      4.53480882   -1.72828673   -0.77573032