 BEGIN_INFO
   #
   # This is a XCRYSDEN-Structure-File
   # aimed for Visualization of Fermi Surface
   #
   # Case: Tight-binding calculation
   #
   # Launch as: xcrysden --xsf HICOLM.XSF
   #
 END_INFO
 # estrutura final
CRYSTAL
PRIMVEC
      14.33654907       0.00000000       0.00000000
       0.00000000      14.33654907       0.00000000
       0.00000000       0.00000000      14.33654907
PRIMCOORD
  300    1
    8   -3.05345007   -5.97241585    0.60820217    -24.39492855   14.29543969  -27.62105597      3.35924522    2.89835481    1.27024047
    1   -2.45212972   -5.70214779    1.31068126     12.42544618  -26.81098892    8.98540453      9.71561531  -22.60135882    1.14008400
    1   -3.09621767   -6.96197524    0.52533028     15.80503086   14.44535461   21.52792139    -19.97433087   22.40584863    2.82496105
    8    2.69270808   -5.14315805    1.20496449     23.10144965   -1.33878638   23.27300314      4.66183485    0.76020676   -3.22774822
    1    2.31363233   -4.41108707    1.68078525    -23.43639128   20.98107032   -0.06761282     -1.99264269    7.46921097   29.77023159
    1    3.53875533   -5.18251786    1.68331589     -1.52717043  -13.53476131  -10.48546356    -23.26963001    1.33861554   -6.21670114
    8   -7.01549819    2.28351256   -6.20752714    -42.04881046  -25.29148738   10.46361631      3.55845481   -8.82479919    0.80910876
    1   -6.34999055    2.76580669   -6.63913619     35.83935607   24.64226222  -14.61029604      1.22229433   10.25782495   -3.04765615
    1   -6.60409757    2.03429360   -5.36919061      2.95784878   -0.59789902    3.45179456     16.43342969    6.49418190   23.77415196
    8    1.95125512    3.87537698   -5.84329927     67.24952936    7.84727174  -23.17733455     -0.99212642    0.79714017    4.62538785
    1    2.87831432    3.53275565   -5.77459261    -17.37770165   24.97923916   -9.92134493    -30.19193575  -18.56797942   -1.38119726
    1    1.55167260    3.30648810   -5.26155218    -43.73135227  -28.24819525   34.32174524     43.01701436   -1.45384415  -18.80641271
    8   -4.11971306   -6.47544316   -4.48765220     20.19083481  -24.03479327   -3.73887934      0.33830493    0.03548327   -0.96225456
    1   -3.51669253   -6.25944452   -3.76304581     -1.97807433   12.72791585   -1.23472944     -0.16671489    8.94540606   -1.35014855
    1   -4.82108496   -5.83918588   -4.41858485    -19.94747242   15.57562414    5.48038299     14.16649401   -0.45690295  -19.37673687
    8   -6.54646443   -0.71451271   -2.33988862    -26.62163739   -0.49436935  -17.03148743     -2.61303058    6.95865492    3.83612209
    1    6.88026819   -0.75895442   -2.69314672      6.14608632    4.74814107    5.30349339     18.48080338  -10.60225312  -24.03774183
    1   -6.14813547   -0.10526089   -2.98330789     14.11368302    2.98705202    5.94661545     -0.27436360   21.60754607   19.95579808
    8    6.13460116    3.45458642   -2.11763543     29.86950584   38.33705701  -36.76544757     -3.53009750   -4.57685400   -3.67793546
    1    5.53716947    4.15074709   -2.44357628    -13.82001270  -12.51854449   14.36509634    -12.91854935  -24.34790028   27.61260465
    1    6.96557531    3.77599782   -2.58725870    -15.19368498  -26.81765215   20.23765742     19.99420493   14.92303564   -3.56869073
    8    3.55201296    1.16593455   -6.36217831      7.07817455   43.19392399   -8.64492264      1.05273863   -1.92040815    4.47738133
    1    3.33458812    1.69215906   -7.14633538    -18.02722830  -24.46521455  -17.21035663    -18.80604278  -11.94877438    3.84822459
    1    4.10161607    1.86192763   -5.95716790      4.72429316  -20.56374738   23.42503695     -2.95969841    9.78951320   32.95365396
    8   -5.32704895    0.92364439   -4.30506385    -13.03339370  -15.97653298  -18.48636371      0.21922132   -1.43276346   -0.86541285
    1   -5.29075058    0.31881290   -5.09474972     -0.62695251    9.62737573   22.08820212     15.40188061   10.90515944    8.43509515
    1   -4.67175102    1.59437232   -4.50986619     13.11479535    8.96975762    5.41094143    -11.43611190   23.04234002    6.18118845
    8    3.55172245   -7.00019807    3.93055046      9.87399162   50.49950348  -28.18291844     -6.37549306    0.65957565    0.11366945
    1    4.46582772    6.97145062    3.96548047     -9.73437772  -11.58239028    1.90164021     -0.92474435   13.32543505    0.48864596
    1    2.99525068    6.73287733    4.36061613     -8.33573094  -42.65131329   18.05243830    -24.82055737  -12.33352616   12.94761910
    8    3.61749211   -3.16501420   -1.29823296     18.45469145   28.71023345   -8.71975123     -0.04757534   -0.66576566   -1.01005409
    1    3.27739529   -3.99132418   -1.02466691    -13.96991196  -32.50101566    7.53002959      1.39629591    3.24456473   -0.61668291
    1    4.31052764   -3.00620364   -0.64552424     -1.18662792    6.17287548    1.47904514    -13.77263030   -4.24702754   19.34019535
    8   -3.13111599    2.73180828   -3.99383762     19.37084517  -29.34733764   -0.01061745     -1.36185451    1.51536668   -1.05949255
    1   -2.15827062    2.56655896   -4.12501677    -25.39047324   10.96867123    2.49597815     -3.38639989   -1.82444943   -5.75962625
    1   -3.24697891    3.60312257   -4.35225588     -2.27500462   18.70658536   -6.08472203     21.76541195  -11.22014532   -9.43828443
    8   -0.09725420    1.63582532   -1.25269409     -6.90681324   13.31909985   10.44076136      2.05894490   -0.31119376    5.47623116
    1    0.80802855    1.45585970   -1.53989757     -3.12291650   -9.18367225   -5.15519580    -20.37696577   -7.17887303   10.97178871
    1   -0.57522680    0.82044550   -1.47379700      3.72089850   -4.20260079   -5.13591920    -10.33243291  -14.56886914   -3.98703134
    8    4.79877598    3.38547097   -5.28820245   -105.27645668   20.62832773   22.20614430     -5.13964801   -3.52027548    0.80385793
    1    4.96787539    4.33036812   -5.26702318      8.62137985   13.38492743   -0.67510864      4.73880736   13.78007948    5.66913224
    1    5.55888956    3.02978996   -5.54129740     98.33279711  -31.94650632  -27.52270044     -3.88632824    0.32384912  -30.19226888
    8    1.17552839    0.30931618   -5.08881769     11.90697576    5.61376563  -38.24081552      3.71619834    2.48590875    4.43907154
    1    0.86934135   -0.12410290   -5.92041761    -23.94773101  -14.29791937   15.79709911      5.65908017   15.10918627  -16.06399359
    1    1.99584915    0.61557660   -5.49577973     19.09948014   13.26729842   21.01278103    -18.64512371  -14.55355483   13.97779515
    8    6.03893371    6.63547459    3.75620264     51.00465232   39.44189299   24.88512387      6.20715892    7.19829091   -4.17127874
    1    6.51278611   -7.16710690    4.44249655    -26.65352041  -24.90978897    7.26089664     11.25110790    3.78795049   12.47892508
    1    6.57921600    6.92272246    3.01504722    -11.35780378  -16.74467207  -26.48948297     -8.83452822   13.95790894   -4.33597038
    8   -4.50034668    6.70045536    5.42366008    -44.73557988   -5.60287726  -12.96742219     -0.02869042    2.84700812    0.41168214
    1   -3.95710507    7.13363525    6.09344936     18.05371498    7.97690471    8.41939221      1.36672012   -7.14224912   -1.52586990
    1   -5.39482366    7.01137649    5.73407147     15.56900443  -11.95355849  -16.58579738     -7.29237525   14.48290943  -22.57545729
    8    4.49793103   -1.27311560    6.77622061     -7.30236789    2.66991484   -6.56067371     -4.12434396    4.38106172   -3.38049682
    1    3.89753279   -0.59304336    7.08285589    -13.62094056    3.76559116   13.49109900    -26.65417136   -8.20220564    2.05257174
    1    5.21176354   -0.72496936    6.46629189     24.38257488    6.19864105   -5.95811938     26.88532307   16.43044205  -14.47780536
    8   -2.33241070   -3.35025543    3.92053083    -43.25347421  -35.21840123    2.60441893      0.58099123   -1.75433663    0.50154347
    1   -3.27233137   -3.08349825    3.70238967     26.41627616   -1.73490104    4.28237145    -14.56397420  -10.44100175  -21.29449750
    1   -1.86712325   -2.55781887    3.88915688     18.15654743   44.61443757   -6.47037516    -15.04593150   19.19297759    1.23443528
    8    2.01181661    0.45000142   -2.50812347     -1.83124410   -3.92706087  -36.94390335     -3.07704282   -3.74924975    4.16207493
    1    1.75078652    0.29546268   -3.48275163     10.36053797    9.40718463   46.70065686     14.08145942   -5.29678041  -11.45287460
    1    2.31156830    1.39274825   -2.47386672     -3.38609933   -9.44888321  -11.75353720     11.82070386   10.92731437   -6.10771126
    8    2.04821603   -2.83759466    2.80192045     20.05714287   11.03352354   20.89828153     -1.71081515    0.96899990   -4.53815864
    1    2.70371769   -2.23231795    3.22924955     -6.67337450  -18.32281777   -8.49647925      8.39469090    7.76695742  -20.14445185
    1    1.32800986   -2.23519151    2.60695016     -8.38177829   -1.50143753  -10.67613990    -12.32427805   -1.74418086   -4.35362331
    8    0.12820330   -2.39231698    0.77974103    -26.72830025   36.49386329   17.51549239     -4.63579915    0.26822295    0.84695482
    1    0.28381806   -2.45123814   -0.14895288     12.68538964  -17.23965961  -27.06722298     -1.21481541    3.50148720    6.45039456
    1   -0.36348503   -1.53808007    0.81144997      8.69030089  -18.83365366   11.15812475     14.20954908  -10.56213259    2.29565053
    8    4.92288544   -1.44344532    1.00987400    -16.66759394    3.83245415   37.76449952      5.54747967   -0.35139980   -2.70704541
    1    4.57579701   -1.47805379    1.93516846     16.26583928  -11.78801923  -19.20561156     15.98144281   14.60136657   -7.77575395
    1    4.59211330   -0.57080308    0.75012698     -1.66067513   -2.65744319  -12.11161610     -8.98574744    1.87269300  -14.53689691
    8    2.47603831    3.02848054   -2.28694372     13.46380983  -12.04000183   40.92858744      2.19043818   -5.44526470   -0.94967110
    1    1.96450931    3.79777846   -2.45420679    -15.78645308   24.29807471  -14.22767201     -1.31816964   14.78627803   16.02727954
    1    2.67858332    3.16539412   -1.33189745      1.20453309   -5.29192662  -24.19558971     -3.87507126   -2.27698034  -14.64551986
    8   -6.41315556    3.55069136    0.89965766    -45.70835561    3.21045360   -4.68194919     -1.93894651   -4.63706466   -0.55121605
    1    7.07939478    3.39568078    0.41463787      9.71067499   13.18581372   16.33025105    -32.47775293  -50.15137943  -25.97504337
    1   -5.90145309    2.87129338    0.50274578     37.31146170  -17.79703725  -17.73220000      2.23401898  -19.05156851  -30.49936542
    8    2.44389311   -4.76914747    4.78112442    -10.62834168   22.63285900   12.42033549      8.84328443    1.31133225   -0.99736811
    1    2.83529568   -5.53033438    4.33233015      8.31003458  -14.31067269   -1.97913781    -20.00815032   30.07553407  -28.20556348
    1    2.15529289   -4.21051523    4.04211293      2.18307146    2.94508460   -1.93666056     -2.24423861  -13.18411308    0.32571943
    8    1.44276397   -3.85396137   -4.44244441     -2.80960075    7.64083598   27.32000191      0.52561918   -5.15538491   -5.34106417
    1    0.56718095   -3.53844775   -4.68439048    -12.70333102   12.26856797   -3.99672349    -12.73763965   29.92925253   13.61071851
    1    1.71933937   -4.23062073   -5.24883124     14.69305216  -17.47122126  -31.15185260     -0.65381402    2.46646647  -25.52620995
    8    2.11021283    0.87250708    2.80849080      3.79608266  -51.37135503  -16.70848102     -2.27393597    0.49088117   -6.73957608
    1    2.37596312    0.68000921    1.87335519     -3.11019593    8.20431575   23.93840123      5.84098399   24.88684558   42.32774868
    1    1.83258266    1.77684201    2.77325391      1.60167159   32.73839422   -8.27746992     13.34851769    7.17124262   26.14375617
    8   -1.83450548    2.96751897    5.49556519      9.58713458   -5.46307067   44.88333911      6.00655666   -1.42916207   -3.16086086
    1   -1.46681432    3.51824795    6.21620990     -4.43667699    7.97979165  -25.20492690     10.76401369   18.55214275    4.03844742
    1   -2.02938094    2.17969547    6.03516424    -10.60023745   -3.12631675  -22.56271072     11.78150770   13.11045686   -8.08294111
    8    3.30613187    0.44286733    0.08044321      0.17774291   14.15624272   19.96259060     -0.20095018   -3.45280249   -1.25446717
    1    4.05418500    0.78948702   -0.43702389     -4.61706411   -5.33301017   -8.38919379    -23.84465755  -16.87248539   -6.29391239
    1    2.66827434    0.14555698   -0.57039780     -0.88060638   -2.55691757  -17.13800934      6.66091748   -0.87890754   -1.80946196
    8   -5.60600901   -5.09379240    3.09214670     -5.61792084  -26.46821414  -19.98919331     -1.49531231   -0.61500397    2.57262651
    1   -4.96516346   -5.74285108    3.40658915      0.64632578    6.91625167    2.14827939      3.04688571    5.24701671   -2.89284945
    1   -5.69654705   -4.49204110    3.80640352      5.34087836   18.98377568   20.73977068     -3.67434429   -4.42091846    9.75278308
    8    1.14792860    6.40348599   -5.15543327     34.19471853   -1.81370785   33.61198315     -2.16656007    3.08447800   -8.09359644
    1    0.40406957    6.58555722   -5.74385755      4.03643249  -16.75802702  -14.03823676    -20.20139867   12.00807132   24.69945015
    1    1.62823738    5.58602564   -5.46042120    -32.12391190   15.30790415  -13.59897220      5.48789829    7.38712720  -17.47351032
    8   -4.72102318   -2.05416899    3.38352422     17.70140072    0.47001487  -17.17611169     -0.13304769    0.21183425   -3.53979055
    1   -5.01041821   -1.74187931    2.49650376      3.46354784  -11.73486165    6.37874503     -7.65636365    5.05091846    1.80835947
    1   -5.45976388   -1.81741093    3.95324696     -9.96025162    1.36434085   15.02563480     -3.54211417    9.06095412   18.97888440
    8    4.14806720   -3.81832695    7.06127624     18.28406742  -34.29738725   38.61927213     -5.04664313    4.80547656   -1.31758402
    1    3.57965405   -4.08414666    6.36059752    -17.63174687    0.38221545  -26.52793830     22.09672761   20.30447537    9.24775608
    1    4.20444662   -2.85788835    7.01543679     -4.58096339   19.42110225   -7.99804610    -13.66511576   -2.97644318   -4.72129047
    8   -3.78276757    1.06080154    6.74062471    -19.75473312  -49.00229790   38.54297359      5.58047453    3.43461183   -0.01204547
    1   -4.39932753    0.41632489   -7.13260479     33.92713320   23.51751882  -21.65897584    -15.13678205   11.46475836    8.90611401
    1   -4.39676031    1.66300498    6.34762094    -10.87075365   23.53045001  -18.93467720    -16.97107167   19.03918977   25.36362021
    8   -3.98747687    5.51834656    2.98794580    -31.26724006   17.26216744   14.98242456     -3.02483726    1.60405394   -0.91124563
    1   -3.04756684    5.53747886    3.11388782     28.24841585   -0.41339385   -0.43279633     -3.95505249   10.92928796   21.86496093
    1   -4.29143887    6.09397417    3.73399810      5.08307403  -18.20517404   -7.08204161      4.33228635   18.17777564    2.52271365
    8   -0.53390101    6.15937707    5.70739906      4.54890506    3.23864244   -5.36685319      6.22933022   -0.52712976   -4.41571933
    1   -0.82407215    5.47612229    6.32689126     -3.05207010   -5.72894880    7.45900288     -7.70423177   -5.73297392   21.03913315
    1   -0.32314004    6.87321586    6.31672168     -0.02165681    8.31655883    0.39746339     11.70978318   10.04565567   13.91322460
    8   -0.55135791    2.82220126   -4.57837233     47.72327204   -0.59156410   69.30106858      2.86031818    1.02636522   -1.78349105
    1   -0.40588234    3.42653674   -3.75530148    -14.19595555  -23.20899230  -46.71746070     -6.65531992   22.33068815   10.80322872
    1    0.06505962    2.06902850   -4.36179958    -24.27141601   20.37476139  -15.01277801     -8.15378540   -5.53787794   11.39246614
    8    2.19406989    3.44894536    2.22422480     -0.78235446   -2.09589363   12.91589997     -2.50238084    0.55420462   -4.35134032
    1    1.74973474    4.04823219    1.60742183      3.62605493    9.50974161    7.82032267    -16.63377299   -5.60065617   32.24120740
    1    2.22022948    3.91862227    3.11432664     -2.57224547    1.07231735  -32.62118487      9.89553314   -7.99532033   17.79653335
    8    5.24941895    6.26598306   -4.96337256    -30.47452067  -33.08647084   85.27881326     -4.51295854    4.46066472    2.84747797
    1    5.16623588   -7.10362783   -4.97222765     -2.00084449    7.53525253   -5.73718472      7.57818791   -6.32193403   -3.33081460
    1    4.84682034    6.03008323   -4.02042443     34.26096609   19.07874356  -74.52325201     -7.20452495  -18.22939759   -2.23553357
    8   -1.03418755    0.47273664    1.11823331     -6.01155474  -28.21685239   11.08593410     -1.38521595   -3.74194811    3.37889645
    1   -0.45168168    1.08199218    0.69478884     12.50017524   16.22056028  -16.83838342      7.75776714   21.65281548    0.61182338
    1   -1.18219011    0.89236874    1.96803704     -7.31706407    6.44789966    5.29413939      3.76963031   15.48211180  -27.06848274
    8   -4.94680449    2.85934981    4.98766023     -9.17171202  -11.98863996    9.04916935     -1.15448474   -0.53497082    5.40960425
    1   -5.64248350    3.40298120    4.60092915    -11.29357660    1.93100321   -5.97605630    -27.36174508   25.27257453    8.08478239
    1   -4.18229121    3.39585196    4.84327239     19.82849340    7.74855016   -1.89593125      2.21841158   20.52979082  -11.47325227
    8    5.81851947    1.15314727   -0.85004998    -22.20736947    5.53647815   35.40607037      4.37892814    5.46785182    1.26831715
    1    5.96847764    0.38879834   -1.40350228      9.73764101    3.40446759  -18.75904844     -1.76042017   -2.36060583   -3.94663905
    1    5.94187409    1.94661190   -1.41626438      7.41137022   -6.17369159   -9.50554087    -20.06447957  -12.97241181   23.67536184
    8    4.94858424    2.62330248    1.42232108    -24.17923344  -46.86063067  -53.34820262     -0.35638651   -0.05374939    0.11884860
    1    5.04183586    1.86448230    0.75805202     17.53909604   36.80526316   35.87961188      1.38086081  -21.80051087   15.32074752
    1    4.03563947    2.89214719    1.19997570     11.20830100   11.73153790   21.47979521     19.17500810  -18.07597763   -1.85174775
    8   -6.67926969   -5.33811061   -4.38398968     59.39568471   -3.06947124    4.50291684      1.67610001   -2.06164004    0.10962851
    1   -6.45291058   -4.77291230   -3.59430092    -33.36085044   -8.39344413  -19.43139022    -21.69370159   -0.28530539    1.92427045
    1    6.71076296   -5.45424402   -4.40893449    -20.32445590    9.43530321   10.85627903     -7.56933264    2.37812839   22.09818564
    8    3.35101495   -6.21577528   -1.05455547     58.77934780  -31.03523694  -68.78979091      3.29994503    5.64731699    1.24664969
    1    4.34034358   -6.42952527   -0.87681017    -59.23805604   24.53459844   15.46710344    -10.44959109   -7.41220798  -19.85075375
    1    2.93341170   -5.87018011   -0.27934524     11.82286293    9.38583265   47.50183780     21.68666429   29.45694220    2.14256987
    8   -6.57133217    6.25465219    1.56807639    -10.78279730   34.50787733    9.68550286      6.45354791    3.23133034   -0.93666763
    1   -6.38199873    5.41220119    1.14841251     13.79529123  -14.19601540    0.41022511     25.65659500  -29.19351054  -32.04316460
    1   -5.74845589    6.52091167    2.02071182     -1.41204412  -17.66994148  -13.63497755    -35.05662930   11.88406582   -9.80755968
    8   -6.43647804    6.26841665   -5.86071534    -11.30169125   -0.19552323   32.00606406     -2.52583830   -0.99541251   -1.66995994
    1   -5.95074049    6.72835345   -5.13654338     -6.37412085   -3.72220785  -19.78089704     -0.53895642   28.55357392  -22.61971378
    1    7.03077775    6.07722707   -5.42309206     11.38832349    6.16272747  -13.60810781     26.23138776  -21.58455999    1.15590230
    8    1.56722039    5.27683777   -0.05119069     21.54587136  -44.12547311  -15.67796474     -5.95602868   -0.19417271   -3.85219444
    1    1.12479690    5.75624505    0.66580654     -4.25947521   32.04155940  -13.27115911    -18.32056635    9.91027978  -51.20770539
    1    1.73897720    5.89421754   -0.80219454    -14.56947397    3.91910971   23.83581025     -9.04394352    0.41763668    5.97923261
    8    0.91043828   -2.94207432   -1.92171013     -8.28155219   -0.73957746    4.59987787      3.50352143    2.33339067    6.47522488
    1    0.94174396   -3.63101840   -2.64516888     22.88110789   28.39925949   20.41994280     14.22207373   -4.33485355   -3.33292635
    1    1.83387277   -2.61094514   -1.76375160    -16.67572659  -24.03849616  -18.58046865    -18.86580764  -25.22935873   -2.32292354
    8   -2.71461561   -0.06125256    4.02660761     -2.05219194   10.51129955   -2.39397497      0.94536217   -0.33541009    5.34052740
    1   -3.49204464   -0.55255217    3.71480226     -3.72625426   -7.35123227   -2.10096831     13.34167763   12.19789551   -1.07328621
    1   -3.15749387    0.63060823    4.57299601      3.87567692   -4.71456122    1.55160761      0.20382592   15.69460823   13.18497580
    8   -0.65420795   -6.23268424   -6.33748386      1.85111195   17.77429449   -3.76620850     -2.42099649   -4.55501945    1.95990212
    1   -0.66028320   -6.02503377   -5.36875672     -5.54765150   -3.81332269   -2.41554267     -6.23333638   -3.77078898  -11.62707714
    1   -0.24437736   -5.37213573   -6.68175881      0.85445939   -8.96562584   -0.70630933      4.42104947   -9.32266838  -28.81603775
    8    5.14141845   -0.14680399   -3.37225432      1.22464225   -1.21309729    7.30197308      8.98740581   -3.89807355   -6.58651279
    1    4.41943598   -0.80521468   -3.61105489      5.31510340    5.45215046   -1.98054572     21.53361250   -4.66755304  -33.31370515
    1    4.74964527    0.71497337   -3.59475487     -1.64612371   -2.94158875   -2.07537215     16.71180068  -23.35838667  -28.05551832
    8    6.16029540   -6.90624497   -0.66581378     13.39266716   -5.51791021   27.74651507      0.53094130    2.71376438    0.08496206
    1    6.25971889    6.82982564    0.13733022     -3.33404232    5.91863581  -11.27999710     -5.67664154   25.47293519  -31.26717123
    1    7.01841784   -6.40429798   -0.51495093    -10.64841688    0.89688746  -10.31015188    -22.07955341   14.52575813  -11.06804385
    8   -4.43116661   -3.68565777   -6.99262530    -20.86083451  -15.35290499   13.06712836      1.17269549   -4.66885929   -0.15049885
    1   -5.44229534   -3.59660109   -6.94897712     15.44217071  -12.87176423   -4.21517237     -6.87275416   -6.86306384  -19.44125116
    1   -4.28667797   -4.70318734   -6.83303415     -2.68961098   25.13786689  -10.65012363      2.28155662  -23.91870639  -16.99633216
    8    6.56013859   -2.34560308   -4.86757877    -19.72769595   -7.82553273   15.18276823     -4.59483552   -4.26201176    0.62426085
    1    6.73084607   -2.67845162   -3.92121130     13.56502581   -3.06298788  -17.27674969      6.17014992    9.09485150   -2.82823957
    1    5.55836763   -2.29147015   -4.75389736      8.63310913    6.80778820  -10.54795623     -1.15141811    8.70289509  -34.05031106
    8    4.99549065   -5.33154172   -4.97067650     -5.85331756   15.95670304  -52.04186261     -1.85235439    0.26616227    4.13219628
    1    4.75354775   -4.53096490   -4.54907821     -7.24261215   11.20291802   20.56815369     15.10386373   -2.19218971  -19.78734968
    1    4.85380997   -4.93071192   -5.94494166      3.94448423  -23.10865115   27.61575932    -13.46058922  -20.18497844   11.76758900
    8   -1.39218523    2.96073807    2.49328264      8.55451210   10.27121569  -17.51129974      0.46896141    0.43618492    0.45404628
    1   -1.67738603    2.66216896    3.38063532      0.84893780   13.64220366    8.71940160     -5.17028215  -11.35028776   22.61307904
    1   -1.19101442    3.95649619    2.56302804     -7.88379599  -17.62854744   13.44616723    -17.37523808   11.38048453   33.20451905
    8   -5.89536561    0.90625660    2.33844449      5.96269895  -26.28259563    3.16602667      4.08745795   -0.43715948    3.67739396
    1   -6.41251510    0.92367954    3.16373664      0.85921171    6.89536075   -3.18553011    -26.38482628   12.56760538  -10.57483831
    1   -6.01034205    1.75813432    1.94664706     -4.85036051   14.85099748    0.39810208     10.39819737    7.94469738    8.11786123
    8    6.55386837    0.55406841    5.88511798     -8.23397726    5.86718254    9.47089325     -1.55658353   -5.61173305   -4.91691720
    1    6.65905116    1.15231027    6.69473073      1.78372621   -3.49770186  -11.65940552    -10.68776232   -0.29640608    5.92485752
    1    6.14392853    1.17554689    5.18789830      4.53125039   -1.00237640    5.99529583    -14.05681121    3.34385622  -13.36013050
    8   -6.01380189    4.30912174   -3.56666512     19.40770897   12.88839970  -23.84273560      3.04023088   -1.24118948   -2.41526936
    1   -5.51225421    5.03546787   -3.06409303    -14.32153002   -6.54723951    5.35609612      1.13638409   -1.94588323   -4.49422200
    1   -5.57983409    4.45297916   -4.47813639    -12.09074256  -12.36060220   16.64703017      0.56931837  -25.32522553  -40.71183176
    8    4.48173590   -2.04042794    4.11478963     -5.74941487   -6.70146624  -15.86623539     -1.09542993    2.54112088   -0.40245582
    1    4.94527509   -2.92796447    3.98117409     -3.12102957   11.22662250   -2.87426093     -9.15607435   19.73071904   11.25870488
    1    4.51076453   -1.89297946    5.07221745      2.07806177   -0.30188182    7.39866767    -13.67837821   12.18106721  -21.08736157
    8    4.53768164    5.84779050   -2.29456719      7.00176493  -16.53117275  -20.90656924      0.13629794   -4.19228075    1.26679550
    1    5.29680285    6.17044193   -1.77481551      1.47540588   11.66494312    8.05395117     -4.47992772  -27.67131756   -2.77419116
    1    3.78701067    6.39557589   -1.99622689     -0.25652231    1.46061973    4.99272308     -4.39734680   21.68239702    9.54295759
    8    5.57387102    2.27774105    4.05496499      5.30710217   -5.11206907   15.46499247      4.86816803    1.63995254   -1.72691641
    1    6.30616987    2.97568807    3.97955095     -5.89328494    0.90911488   -1.09827204     -2.92944772    6.00413067  -20.49903968
    1    5.22431105    2.30900622    3.13480296     -1.55342148    4.40900790  -11.74976568     20.56700058   -5.30505125   17.38975023
    8   -4.80584766    4.13564562   -6.35075824    -12.04803889   22.53128113  -14.28145743     -0.25194034   -1.34746475    7.29210883
    1   -4.07644989    4.63984916   -6.76782331      3.15613021  -10.03611877    5.01010651     16.65855524  -17.94840946    4.12622776
    1   -5.53892266    4.80175269   -6.59505618      8.67160063  -10.84757483   12.93241494     -7.39760477  -14.25979363   -3.61316721
    8   -1.12516459    4.70568349   -6.45867107      3.41355428  -23.03981278   -9.68265395     -0.65121513    7.76442912   -0.58623176
    1   -0.73316297    3.88292175   -6.01050409     -4.54887361   13.33475307    1.13125105     -9.28518957  -16.30541585    3.70821443
    1   -1.76824042    4.99170330   -5.74943928     -0.51871993    6.77444698    2.86178989    -11.93639248   -8.04886784   27.25428438
    8   -5.73201537   -5.14974942   -0.04749971    -11.61417503   -5.89378887    3.49536531     -1.49276130    2.45905517   -0.24238781
    1   -5.16025946   -5.39050228    0.72441058      2.43808351    2.99825089   -7.49202346     17.38603014   13.93072846  -15.61629512
    1   -6.34339792   -4.49203724    0.37194844      2.78449978    2.96652495   -3.12226197      1.85545486   22.34400323   -7.13251529
    8   -1.56440511   -5.15733625   -3.68134685     13.11025421    9.95555011    6.23859123      4.59961525   -4.84793636    0.69170384
    1   -1.70521271   -4.82762241   -2.75116767     -9.57553192   -4.65694966    2.26659980      9.89353030   -7.88768567  -34.28728302
    1   -1.07626619   -4.35287618   -3.98066487     -9.63996588   -5.29808312  -11.16173063    -22.34965091    2.84351403   21.42552122
    8    3.06457601    2.03262886    5.26124225    -21.08252146    0.34925661   26.87594777     -3.06487186   -4.39481604    0.46581163
    1    3.92499910    2.28520276    5.01887643     33.26213683   12.95522231  -11.43253380    -27.61422329  -16.84248659   -3.94421316
    1    2.99832098    1.26927819    4.70270393    -10.24300424  -14.30284301  -14.15438212    -25.97173715    2.64697091    3.13545822
    8    0.19733248   -0.85811431    7.10163706      3.54521258    3.62517662   -8.47468379      4.24680507   -2.54518231    5.48167899
    1   -0.69239564   -1.24872065    7.05936681     -8.86174886   -3.90134119   -0.08979363     16.79572793    2.68261895    9.54735717
    1    0.20454482   -0.47768293    6.16707713      2.12154533   -0.53587512   -1.16970302      2.81263007   16.92822752   -0.35729147
    8    6.97878975   -3.92725019    7.05203369     39.02778718  -23.94743947   28.05952700      2.79722762   -2.58064248    1.14110664
    1    6.75343361   -3.51497360   -6.37732907     -6.68367696    2.58076797  -21.20437832     -6.79382643  -31.07391238    5.78928006
    1    6.47593932   -3.52391037    6.38046144    -20.64958973   19.36226493   -2.26781001     24.01781676   -5.22018326    4.59776682
    8   -4.85162711    2.00908983   -1.02498334    -21.17188060   23.75163358  -34.68844157      2.13925835    2.37354835    1.79678632
    1   -5.04362596    2.18951566   -2.03934637     10.69647853   -9.10999672   38.90620171     -6.56107687  -15.72458740    2.61457504
    1   -4.30111503    1.22945102   -1.04503348      9.88876213  -13.52230109   -1.09026142     22.06500061  -20.71617949  -14.22387758
    8    3.83406131   -2.46330849   -3.95714171     10.28656884    2.67214776  -14.24341659     -1.82611483    7.87128985   -6.18075329