 BEGIN_INFO
   #
   # This is a XCRYSDEN-Structure-File
   # aimed for Visualization of Fermi Surface
   #
   # Case: Tight-binding calculation
   #
   # Launch as: xcrysden --xsf HICOLM.XSF
   #
 END_INFO
 # estrutura final
CRYSTAL
PRIMVEC
      14.48910395       0.00000000       0.00000000
       0.00000000      14.48910395       0.00000000
       0.00000000       0.00000000      14.48910395
PRIMCOORD
  300    1
    8   -4.74597657   -3.77920995    2.05244067     34.32607510  -12.00883399   37.10005413      2.09650526    6.42527520    3.74072116
    1   -5.36892325   -3.36182435    1.42188546     -5.05992091  -41.43374420  -12.43196805     23.47849248  -11.87833160  -27.78895481
    1   -4.73082098   -4.81343350    1.99713478    -26.67663840   60.28490565  -22.70924106      1.42201858   -2.94812523    7.79214184
    8    2.36778909    2.02344224    1.85620953    -16.65994921   24.98620747   34.55870707     -2.00323621   -0.03282926   -3.47742130
    1    2.43211698    1.28142394    1.28737857      4.03434744  -12.18186657  -39.53636644    -31.75114446   18.22422698  -14.18647454
    1    2.31854154    2.81867043    1.27926612     12.09255343  -17.69614819   -3.84067552    -16.68482399   -3.65971630  -15.72214981
    8    7.05161405    4.69520739    6.89890353      6.36005369  -16.31037048   15.50836248      3.23422146   -1.65998048    5.14232422
    1   -6.73478222    5.20338893   -7.16007252      2.62065479    4.65244582    0.71139340     18.68274551  -22.73939177   14.84072128
    1    6.72136507    5.30204177    6.24412238     -8.14168224   12.50016312  -14.79514844     -4.25257400  -16.59461614    8.41370877
    8   -0.83985213    4.49629541   -4.24550667      0.54338386  -23.29321440   13.85677224      0.06185375   -1.01844607    6.42398086
    1   -0.86756261    3.51638294   -4.35442090     -2.24013616   21.91568038   -4.53256284    -12.30323073    1.96216902  -18.57607478
    1   -0.88463748    4.60208496   -3.27761607      1.91606835    2.79854019  -15.47161091     -6.97656205   37.84567741   -5.91472929
    8   -2.37744934   -7.07925164   -2.14655285      7.82641757   29.79778167  -35.60687832     -0.51062221    0.50428196   -3.46974889
    1   -2.15048976   -6.24336131   -2.62173650    -14.96441935  -22.10485741    2.22614221     31.89914711  -31.49803917   -3.33947530
    1   -1.84102497   -6.98334875   -1.37338187      4.03351758   -5.22584849   27.69205914     14.25011485   19.77864185   14.87191474
    8    6.06734427   -1.18239760   -2.80826766    -11.18128233   18.48806165   -1.01004358      6.51354796   -0.49967638   -1.10559851
    1    5.29971009   -1.48718177   -3.30148004      3.50198226   -5.82316676    1.08676195      3.86234429  -30.66996913    8.98517260
    1    5.73752625   -0.31902229   -2.44623339     11.05314003  -18.34708294   -1.00061873    -14.49137035   -3.44453074    2.86829213
    8    4.59280592    1.27141607   -4.62280055      8.00068643   25.23479293    7.60693899      1.83687710   -3.13013028   -0.21736863
    1    4.62156564    0.46499848   -5.10301136      0.54659826  -24.67215798  -18.06135947     -8.85016688    4.45067709  -30.81300518
    1    5.14452217    1.90204679   -5.18674999     -9.25667200  -12.88479604   20.71532548      0.25403146  -27.33476299  -13.47610433
    8    0.29746011    3.90937919    5.99969037    -11.19247693    0.95831644   61.02923357      0.13222106   -6.12280154   -1.10303423
    1   -0.32542322    3.40408332    5.47097892     -0.29157728   -0.96708746  -32.12732584     14.61537600  -12.40452634   -1.57000570
    1    0.95531465    4.29372283    5.41008130      1.54069572   -1.34514171  -29.40024302    -14.38442315  -14.13133530  -10.61600068
    8    5.42098362    4.34390764   -1.50551481      9.79820220   -1.00027689   20.26865823     -3.64112163    2.98125214   11.06947135
    1    5.88874674    4.89952510   -2.12499301      9.84823145    2.12411710   -7.25935135     11.79748031   -1.19364499  -29.27646285
    1    6.07612183    4.26569229   -0.77021355    -16.23161816   -4.41358989   -8.59432214      5.76033034  -13.66664052   15.87749907
    8    6.83373885   -6.15652659   -5.60073364     49.24837021  -24.38943361   -2.64493471      4.24220181    6.25321052    1.57294140
    1    5.90209216   -6.26396584   -5.49613314    -35.94370849   11.05101341    0.56813654      9.78439388   16.46270997  -28.98284815
    1    7.00391210   -5.22607685   -5.79972785    -14.59193608    9.00551233    4.57673672    -29.13953087   13.97220067  -18.58900718
    8    3.95469570   -5.09857652    0.53069311    -46.18531554  -41.86229499    7.35825544     -6.37384154    2.35197515   -2.44248254
    1    3.14048157   -5.73374039    0.47009701     49.14339338   41.00799209   -8.16392185    -16.57157745    2.01267583    3.91844549
    1    3.88863129   -4.55390657   -0.25496390     -4.14842177   -2.25734055  -10.02068589      3.11572045   -4.27543350   18.92500426
    8   -2.49789882   -0.02166485   -0.90604364     57.65715163  -46.58229961   15.41227837     -1.35220391   -1.06448081    0.80994491
    1   -3.22829585    0.27589277   -0.38955017    -29.07093936   14.31654891   18.32982810     -4.16071333   26.17289745  -25.89509287
    1   -1.97035707   -0.59443981   -0.24892100    -20.12996480   30.83522391  -30.66644331      6.88520913  -25.28520638  -24.00797540
    8    0.19026804    5.57701435   -0.42528843     20.48094333   43.05678124   13.19068404      0.00226719   -2.65857699   -3.62345600
    1   -0.64253672    5.19222658   -0.50860644    -56.53178315  -17.86168008    5.93248059     -5.71109408  -15.87049043   -0.83771547
    1    0.67058429    4.90046269   -0.83820367     38.57736753  -25.83129073  -20.00491538     -6.66485381   11.45344094  -13.48930813
    8   -5.86172813    0.76518618   -5.53184335    -22.76287732   23.97108799    8.15107371      4.00735801   -5.53464099   -7.23734173
    1   -5.69147545    0.76318486   -6.50104681     -4.48353573    3.33656164    8.55129657     27.37475269   24.38096103    2.18943621
    1   -6.51804361    1.50265810   -5.38834582     25.30792492  -28.65109398  -13.40734187      4.73318223   20.98945542  -41.40893317
    8    4.25869078   -1.19628860   -6.13844819     29.87999959   -5.65648967   13.34728664      3.39477808   -0.98627129   -4.07962655
    1    3.74806055   -0.70013184   -6.78621226    -11.68662063    5.73334424  -10.51043927    -28.54024298  -20.76789494    0.65089058
    1    5.15545087   -1.23661729   -6.56034636    -24.07468682    3.11686821    0.42604813     -1.77493744  -17.70361208   12.26086817
    8    1.79784616    6.22849688   -5.81220936     18.40289131  -12.29396655    5.33627275     -3.81610919    3.26329554   10.02024499
    1    0.96510292    6.67134397   -5.77748895    -27.51736551   21.85936153   -5.29696200     -4.13685036  -29.33351531   16.63857318
    1    1.70360914    5.63231876   -5.06156913      8.33305688   -4.28350612   -2.55450392      7.41254362   33.56289881   -0.04532620
    8   -6.25700673   -5.03862773    5.66420899    -12.05840752    9.23792734   -0.04089273     -0.27034027   -5.51715044   -2.20577524
    1   -6.52160255   -4.13824371    6.01113085      8.40329572  -24.23551436   -7.75739654     31.11038166    7.61977374   21.68643366
    1   -5.35879715   -5.14320518    5.98547947      1.55058103   -0.06079342   -0.04712770    -16.24960124   11.76328990   20.63744955
    8    3.34458870   -2.60869929   -4.03690294     -4.61121917  -12.89797017   21.08154784    -11.09316507    0.95955365    1.27623326
    1    2.62762401   -3.11903958   -4.47013130     10.34413942    6.26964039    2.40205056     14.79715886   21.87956507  -13.96880796
    1    3.75037217   -2.09970561   -4.74906537     -4.53967131    5.90366132  -21.18254395    -17.48766597  -11.09523344  -24.21092494
    8   -0.19211221   -3.71840815    6.98047206     13.14037680  -14.65033276   -2.43437776     -1.57357702   -0.47485792    4.61795266
    1    0.47915558   -3.15671853    6.55135930     -0.73773416    7.61643955    2.80544403     44.02557314   40.77399108   -7.71009754
    1   -0.02714543   -4.56198238    6.51218806     -7.16022501    2.67300500    4.42289324      2.35641105   -5.34741975  -14.86235702
    8    2.71078707    3.02011322   -4.32184052    -22.80209410   38.62019282   28.84782363      7.00432253    1.92288835    1.38271906
    1    2.10297378    2.86652955   -5.05633688     10.52286974  -18.69946253  -13.23275298      7.97845181   13.44810167   -6.64012417
    1    3.42458426    2.36214042   -4.38389956      0.14351312  -13.66373712  -17.81097868     12.50836056  -11.03162657   18.66306890
    8    1.98591805   -1.86056587   -1.62498231     64.81449204   49.35751488   15.55971846      3.13097705   -1.53488602    0.91973743
    1    1.22938162   -2.39857006   -1.81331692    -12.13058637  -31.72629911  -32.85773197     13.25388978  -25.03707539    9.99079985
    1    2.63516701   -1.90854976   -2.39711498    -45.28730980  -20.17925064   17.26717736    -14.24299031    2.77752562    1.68195192
    8    0.62709674   -5.98013564    2.15169880     16.94683113   13.20355721   -2.71026708      1.57874090   -1.77831266   -1.07750207
    1    1.25938479   -6.13584016    1.42402954     -7.88470785   -8.52163303   -0.95924442    -17.46899676  -30.94083551   12.36506878
    1    0.81788618   -5.03747192    2.35332056    -14.74127763   -5.46860978    7.32809903    -15.79496055    1.87746996  -12.33383502
    8    7.14619215   -5.90676080    3.01830475     41.78290507    6.89456722   14.74935448     -3.14633411   -1.67057328    4.46615502
    1   -6.48048679   -6.11975274    2.57163255    -20.61371127   -5.51212868   -2.99198697     -0.86149970   25.20238037  -15.44937518
    1   -6.97601057   -5.53563907    3.85486313    -17.92090580   -4.80452578   -4.74806644    -16.90576781   -3.96912800   27.29079074
    8    4.88093529    0.81677650   -1.51787461      9.35390564   11.16769314  -40.44580629      1.61547902    3.43534905   -5.60960662
    1    4.39942268    1.11627242   -2.30838608     16.82619235    4.95812676   -3.05233251     -4.52791014   -5.07654511   -2.43733712
    1    4.16273387    0.65871803   -0.95871907    -29.64634834   -7.97321034   40.32002255      2.18639110   10.38780226   -2.38097827
    8   -4.09647588    3.37514537    6.15158435     45.62393764  -21.10460227   -2.08825930      1.80366171   -0.22685980   -3.90643114
    1   -4.69444132    3.78156082    5.51040211     13.17555816    5.70272959  -11.51881027      0.72744088   -7.43952523    9.99013506
    1   -3.18985368    3.27234378    5.69810152    -56.97770162   13.56668625   13.84264698      6.24973877   12.15524964    8.18008888
    8    1.28430629   -4.54209945   -4.92845328      0.09638495  -22.69002629  -15.32358331      8.24237086    5.04374824   -0.40467513
    1    1.11755054   -4.07592934   -5.72923344     -2.69262092   31.02397818  -14.00537391    -15.25107057  -13.29228582    6.59874134
    1    1.01179579   -5.42237863   -5.25449102      0.32687387   -3.02655535   24.14965209     -7.96998893   28.60763589  -11.55013000
    8   -1.14472528   -0.58192185   -4.09200680     -5.15709150  -59.75191367  -17.21178522     -0.41515278    5.00123390   -0.30968599
    1   -1.48985511   -0.81559204   -4.96340282      1.14505317   17.29925506   -8.86235693      0.67703929  -14.13751808  -13.77612164
    1   -1.12755946   -1.49478071   -3.72167683      3.72668366   32.27298399   11.67993399     -7.72790199  -40.55597881   -7.37652167
    8   -0.70033830   -1.06489345    0.85682243     -8.57835197   31.29737390  -22.85821878     -2.29350954   -6.47199425   -2.56671334
    1    0.26755707   -1.22755690    0.96495588    -20.29759992  -19.15792565   18.09518182     13.03244235   38.18595310  -15.14461857
    1   -1.22869116   -1.58841297    1.50637398     30.44323965   -7.93010270    4.59176336    -21.14095298   -1.99495345  -22.93502147
    8   -3.65285298    6.47114376    6.36924941     -8.01153828   16.01202543  -41.47573192      0.68031423    4.27513619   -2.75429671
    1   -4.34970664    6.36425674    7.02423010    -12.56558435    2.37245499   10.10950366     37.21124669   -7.47548361   27.23211541
    1   -2.90980517    6.00952344    6.74590960     24.30904395  -10.64893060   18.06771701    -58.70301970  -17.30435262    2.94461902
    8    2.02469406    0.70989692   -0.69262862     23.25875857  -25.66753675    9.44284497      0.53218140    5.02205570    2.56691622
    1    2.14761497   -0.23494489   -0.92198171      0.06624704    3.79161795    8.64388754    -25.86855597  -25.86143764    6.35012693
    1    1.38374075    0.94237727   -1.33441072    -25.88992631   17.85121004  -16.94308580     11.75737884   33.34268505    2.65745924
    8    5.17569112    3.23930272    4.76968789    -11.43490278   15.62373209   26.84877617     -0.00346949   -7.20706734    3.21134869
    1    4.73390974    3.74826326    5.49337388     16.33813952  -17.12544062  -22.06412572    -14.58595368   29.09906569   -9.09821061
    1    4.85747791    3.66145144    3.97567659     -9.12960238    7.40202742  -13.02225217     17.72280294   29.48502281   31.29151247
    8    3.08648779    6.69073305    6.23830559    -10.73952226  -26.79824181   27.49782020     -0.36779190    1.51403648    7.11657121
    1    2.65735028    6.46065649    7.11059792     10.32068130    2.14399072  -21.25560748     -5.73277772  -34.06457267    1.57967013
    1    3.17339578   -6.84759160    6.30299841      3.58424394   17.04934462   -8.33413263      6.20715248    9.67424563    9.49930947
    8    0.61709206   -5.50421310    5.19437269     -4.97503285    9.10356055   -7.69125536     -0.80065634    1.46322329   -4.31000287
    1    0.59018265   -4.83176651    4.47174286     -7.34612178  -16.21741328    6.40165339     -3.28573972   -7.44452001   -4.41174644
    1   -0.01942340   -6.19073084    4.92208829      5.54458702    5.15404422   -4.03262948     -9.36297592    2.01959587    0.12050846
    8    5.90377809   -0.78188893    6.30039338     -6.36638646   31.81625320  -45.13735751      2.43826924    1.55846553   -5.41442288
    1    6.42531435    0.00920566    6.03686815      1.98734791   -9.15037285   15.25792862     10.75133485   -1.68451554   17.51519052
    1    5.21939357   -0.73078255    5.59885546      4.30810703  -12.74911238   21.48379501      6.19748523  -14.59484271  -12.01900506
    8    7.01594518    1.35496218    4.71014864     -2.71206679   -0.07782440   -2.54505185      1.91876858    0.14035740   -4.43248427
    1    6.46554119    2.14042272    4.52225165     -4.23897931    6.06612207   18.94808539     34.46639282   22.03791856   14.32557196
    1    6.89345585    0.87247440    3.89188524      8.29961130  -13.86410914  -15.12275600     13.17591035  -20.78217494   15.18262156
    8   -2.97678860   -6.41997642    4.17745129    -13.74325002   -7.12918275   15.58440442      4.06127629    1.19415348    1.58705485
    1   -3.04345578   -6.87949606    5.05269272      0.64404672    8.26572940  -15.80437668     16.86556635   -2.02832929   18.14657707
    1   -2.14499621   -6.72449453    3.81875651     11.38366525   -7.26974686    0.96227938    -14.32165339   20.66710414   15.35679579
    8    0.97684159    2.06434019   -6.59194585    -16.81108349   12.24547525  -25.14980964     -2.55939554   -4.91896863    5.58271227
    1    0.71468051    2.58397943    7.08348578     13.83431100   -6.71273399   28.19314216      3.85127754  -26.51208777  -20.53129664
    1    0.11095992    1.83878498   -6.21980618      2.31164206    1.01956294    3.12250223    -16.67807333  -10.08931760    4.67692569
    8   -1.82800441    2.24052656   -5.63961802     31.65448417   74.55949517  -15.65163295     -6.42672086    8.96610089   -3.88584793
    1   -2.61935785    2.85919032   -5.63909546      9.89251219  -47.38586253    6.13964469     -2.97485616  -48.56037243   13.31022103
    1   -2.08168607    1.36255869   -5.49155417    -43.34229654  -29.23657621   11.77619115      9.83011816  -16.61851564  -12.51492531
    8   -0.44819562    1.18790905   -2.33473121     51.58998263   55.52827345   20.59207236     -1.29420660    6.58037725    3.84790310
    1   -0.39124335    0.68551868   -3.17062401    -33.60531485  -23.53915201   11.97526555      8.95018116    3.37807714   11.34664781
    1   -1.12013785    0.80392990   -1.75429840    -18.16401863  -25.76491946  -21.46354525     18.00285190   19.11891393   -9.48520823
    8   -6.80111633    6.97732948   -3.26108527     17.39901552  -17.78526979   10.03574311      2.71300687    0.57051655    3.63219942
    1   -6.95432180    7.16932901   -2.28926882    -10.34753933    8.40243150  -35.54993411      2.88736989  -41.19465793    9.25422461
    1    7.16460343   -6.89057544   -3.79802647     -2.89868981    6.07956722   16.50671909    -20.63543751   -7.46808060  -38.17925888
    8   -4.98863843    3.49477417    1.78156894      0.08995292   13.46251320    2.75174746     -2.87256249    1.87236392    0.87489653
    1   -4.95263856    4.18971472    1.10266735      0.60430538   -0.89085312    4.16028449    -16.18878712    6.23510472    6.00205232
    1   -4.90301668    4.00116501    2.62455070      0.64137440   -9.38807314  -11.75985336     -2.06072876   39.08619828  -18.39931536
    8   -4.35579512    5.11766462    3.92077438      8.55524915   -9.30845428  -24.24360857     -5.48097111   -0.94984905   -0.08940451
    1   -4.08744062    5.74574625    4.61131927      3.56705848    0.43749186    2.14384687     -8.12562247    8.78892780    6.63958777
    1   -3.50781103    4.98538281    3.37110581    -22.93913357   11.10642604   29.64500666    -12.22003522  -22.69654606  -10.99330585
    8   -6.71212307   -3.08940315    0.28269307     -1.31698001   34.37929520   38.79387056     -1.06017293   -7.35208165    2.13803770
    1   -6.90868609   -3.74407432   -0.37639744     -7.28829697  -25.58787389  -25.63215199     -2.09656371   18.18685520    2.67685389
    1    7.04180518   -3.19664654    0.92537259      6.92940378   -4.74058527   -9.24716285     14.84682545   23.72649059  -22.45939815
    8    1.10186222    3.35469842   -2.01342987    -15.63507118  -20.00815195   10.05484164     -4.86994878   -2.63139545   -3.92671617
    1    1.49276047    3.08633681   -2.84958207     15.12205897    9.80491161  -10.75513618      9.90507621   -7.27394484    6.80301418
    1    0.41703402    2.64185474   -1.91742522      6.01265412   17.05729773    2.62157818     12.52035771  -21.03133667   11.11834875
    8   -6.81189921    4.29947912   -3.87770718    -40.33208239   16.29524828   -4.98779758     -0.36621338   -6.59420857    1.42647486
    1   -5.92138181    4.02331119   -3.76051285     31.40059472    6.20628935    4.31671368      8.67459953   -5.28903386   -2.26024308
    1   -6.82468567    5.28809909   -3.78268844     14.35482525  -20.41033665    3.55404506      8.23430751  -12.90257170   13.06247529
    8   -0.28868365    6.63290825    3.82717218    -22.44089438   -3.82811384    9.79482693      3.18628186   -2.51933701    0.02985190
    1    0.34995453    5.99118743    4.18941121      9.81815009    2.98749559   -6.24251256     10.28157529   14.98218006   -4.89983318
    1    0.25806192    7.24340033    3.30911993      5.61584119    1.40686554   -8.41525779     21.71793584   -9.59769309    5.42063967
    8   -4.58021435    0.88877688   -2.93848683    -13.69816535   -3.50146591   18.26227725     -7.38330990    0.03243812    2.40816752
    1   -5.00464021    0.23286580   -2.36656440     11.25947989   -1.21681356    8.31479156     -5.13114817   -4.41198414  -28.25309822
    1   -5.06023122    0.71902584   -3.73892287     -1.52417618    4.41062879  -31.44348235    -19.60906453    5.82691066  -20.69217011
    8    3.01837620    0.32390562    3.90680671    -26.73066439    4.42369568  -68.29805305     -3.16672903   -1.11354867    3.12078805
    1    2.53575608    0.82038591    3.14457258     31.84344703  -13.41788394   53.71231171     -9.04070881  -16.33776527  -13.23033810
    1    3.43965183   -0.40510043    3.39876677     -0.74696099   10.16044981   11.73563203     -6.71646552   32.63164207  -10.09835087
    8    1.88896161   -6.73015652   -0.02021110     26.40957334   43.84022448   14.51316284     -5.27442685   -4.27707303   -0.53958341
    1    1.84280014    6.87300387    0.32034782    -12.03677911  -28.42553902  -12.16341631     -6.99288124   20.56555612   17.03893501
    1    1.38787187   -6.71207384   -0.83672991     -5.86347406  -17.47576260   -6.20764045     17.48102434   17.79497066    1.41483268
    8    0.41618207   -3.88230934   -2.42521193      7.50309192   16.51427373   38.24822778      2.55369728    1.34679615    1.44061398
    1    0.59222836   -4.21201111   -3.28665794      8.56957389  -13.18067124  -35.35234349      8.49583311   -8.79787464   -0.65328569
    1   -0.51161832   -4.02433555   -2.31398532    -22.09596140   -2.22278509   -1.47023160     -4.29328669    4.44326575  -32.57347969
    8   -6.75022488   -2.62569157    6.52353232     16.42733380   -1.75894359   -5.84401169     -1.23910461    1.32031068    3.87165258
    1    7.04061198   -1.97874064    6.29202523    -14.00991779   10.05649186    6.93541851    -25.38790837  -20.34126088    5.70413250
    1   -6.15567994   -2.46014397    5.68884835      3.20377753   -6.62953664   11.02421317      0.42387136    1.73591952   -6.94214449
    8   -1.39738695    2.45135586    4.42183816     -1.73058327   -0.99167911    3.37662009     -2.53610605    6.48805080   -1.58547703
    1   -1.48190435    1.67498772    5.05343570     -1.80342134   -4.71882266  -10.28310946     16.05271524   18.18642025   -0.71043776
    1   -1.11587098    2.03514935    3.54159315      1.40578024    0.22217141    7.78940277    -24.73752246   22.02294551    2.99804901
    8   -7.23704097   -4.90679321   -1.56228164      8.46110130    4.73746248   -3.09181176      1.86790978   -0.48182642    2.04618951
    1    6.44672602   -4.96310913   -2.13623010     -7.90311215    8.68413425   -2.93099376     14.91889901   15.26829448   -3.13323811
    1    7.18223088   -5.76359987   -1.09904952      0.00149805  -12.15263446    6.64897012    -16.85225231    2.92992699   20.97145715
    8    4.55754007   -1.45556395    2.22387852     15.25824298  -12.48213557    4.24043731      2.04871409    0.58658345   -0.35895447
    1    5.32761248   -0.82305530    2.39532146     -6.39883828  -11.17444492   -6.09478673    -13.63073697   23.85426022    8.25838706
    1    5.02503846   -2.38857330    2.17300886     -6.66545224   20.94022402    3.50041594     -2.48652285   -1.71397672   -7.84302968
    8   -0.42084385   -6.59154311   -5.51962012     21.58434993   14.65289714   12.53592612     -3.34151718    2.04434214   -1.84148319
    1   -0.96622554   -5.94457802   -4.97822590     -3.86356162   -5.08595675   -2.65223908     -6.92899038    1.52029571    8.23579142
    1   -1.06730725   -7.05765186   -6.01135661    -18.81812123  -13.80949931  -11.76785835    -14.89127882    8.51578578   -2.77861783
    8   -4.80261114   -4.63170560   -3.89416301      6.38673831   -1.98227559   38.02840968     -0.12518179   -2.60950252    2.45641858
    1   -5.62596954   -4.45937356   -4.35163255    -14.41766946    3.98358405   -9.68768684     25.41905554   -4.30663557    7.99569376
    1   -5.12558759   -4.66796116   -2.91235902      8.04888069    0.41539330  -31.03951456      8.08857711  -25.88715513   -1.91533805
    8    7.04321128    7.06189436   -0.61168667    -10.70390801  -11.36812218   13.79125362     -6.98631512    1.65789026    0.30520961
    1   -6.74011499    6.34863228   -0.65896977      6.25886566   -2.07209143   -1.95078276      5.33186668   -5.77777022  -10.07105669
    1    6.48935975    6.63858450    0.13906351      1.68079258   16.71910334  -11.96022834     17.37981673   26.69740961  -25.42791866
    8    3.17802595   -5.09063881    5.52989982    -17.46046780   30.60541660   12.76587887      1.36847325   -1.04458104    0.71332589
    1    3.06806817   -4.08393985    5.68087820      8.56582970  -24.87139858   -4.63395833    -12.44048506  -22.99439156   -7.25818576
    1    2.18199840   -5.31518333    5.47428739     11.66655672   -3.75563093   -4.37783374    -11.05913590   -8.25955087   17.42384048
    8   -7.07702530    5.62394041    2.98210184     -3.48411561   -8.68306972   -9.64742980     -4.48887399   -0.07981931   -0.78526790
    1   -6.19891309    5.32922205    3.26500631      3.23395583    5.51304093   11.01313185      2.75917965  -11.21024464   17.28827852
    1    6.94343431    5.87615238    3.81639797      1.41448907    0.33420204    2.69602871     -3.64966755  -20.27335440   26.58983825
    8   -4.45636770    1.01013563    0.65392224    -17.81176736  -17.38120106  -11.48629704     -0.04866692   -5.58697588    4.50047476
    1   -4.47691297    1.92557891    0.95225987     -5.61760448   12.91910597    6.95380857    -11.88113765  -20.37981202   25.15771589
    1   -5.38899575    0.90972344    0.23234520     19.54021713    4.68548229    6.86533895    -18.53449825   25.33520294  -12.34742190
    8   -3.92437926    3.38123868   -2.19259593    -10.08535375   -3.67761166   10.60166091      0.21716428    1.52416841    2.11173163
    1   -3.44932976    3.61596263   -3.00076171     -1.60565047   -3.16119683   -6.96278996     -7.08305863    9.40875362  -29.29025310
    1   -4.25925536    2.42742756   -2.40019127     10.00723985    6.56842719   -2.96197594     -0.68002318   15.74018110    5.43858288
    8    1.92895512   -1.87021431    1.15931737    -14.86524108   -5.10550047   13.74750616     -3.52843234    1.53397888   -6.76534448
    1    2.85492859   -1.96130756    1.37759976     20.22727523    6.02545510    9.92800027     -5.32160568  -29.98908146  -19.23731846
    1    1.98280043   -2.07208110    0.21928282     -2.49009617    0.25795151  -19.90085794      7.55270215    1.61213288   -4.79506905
    8    3.83598255    4.75476564    2.57015476     -9.40689210  -20.19473711   29.33868125      2.40843615   -0.76488758    4.35897595
    1    3.68833008    4.33630661    1.71075345     -2.85890017   -2.29732963  -14.66001610      8.97751752   10.13295698    9.14220113
    1    4.32711710    5.53448888    2.33534148     14.76703725   18.02024252  -15.07134674    -12.77806121   -9.05113746  -16.94615673
    8    6.91105244    3.68873167    0.83429743     12.37548148  -14.23178818  -24.70865931     10.45803060   -2.00542914   -2.79530892
    1   -6.67173575    3.51541540    1.21147536     -5.66817934    2.35655354    1.53876852    -19.44330515  -23.94030448   13.36341287
    1    6.51708732    4.17162283    1.51802365    -10.09724161   18.90521376   24.03839666      4.62753229   -8.01027889  -10.79420344
    8    6.13615640    3.06895418   -5.61341680     18.22868427    1.58386559  -13.75231885      5.22252574   -1.27142518   -1.52471817
    1    6.36810124    3.59129195   -6.42787727     -5.34840032    0.51171665   -6.83126693    -11.87267994   -6.10315662  -19.43251747
    1    6.86788526    3.46187724   -5.03718647    -12.78080213    0.33506258   10.77404365     -7.09311340    9.39441610   13.04419353
    8   -5.70749895    6.54493079   -6.46623241     15.07715126   -8.65954892   17.62856323      1.20494938   -4.07148276   -1.25168862
    1   -6.44575686    7.13213226   -6.28950624    -19.25143478   14.78153196   -0.90090571      9.85382615    6.49864494    5.42125107
    1   -5.22715746    6.69602782   -5.60613163     -0.06964406   -4.98869250   -9.98637800      7.64159753   -2.99194214   -8.87714449
    8    5.76700621   -3.98249345    2.02495163     14.55668092    5.41799945   -0.61793966      1.52071362    3.30987370    0.66240756
    1    5.11775757   -4.43025757    1.38823213     -1.56918714   -5.57993009    6.67013220     29.43200662   19.42468352  -15.86390868
    1    6.32198764   -4.80605592    2.39530927    -16.34614381   16.38696945   -5.18436146    -24.06601062  -26.78907595  -16.81166810
    8    4.17501559   -6.72710259   -4.85837112      4.52937891   -2.19372763   17.81866165     -4.51503396    5.56845614    7.66166869
    1    4.04151977    6.96913000   -4.22258676      6.70793832    2.11594133   -8.87560784     13.18598161   21.56328716  -11.50606533
    1    3.33486555   -6.77862787   -5.31110210     -7.80237057   -2.05550091   -6.98250446      9.17722440  -30.40976991   -9.07368329
    8    7.10569381    0.12089306    2.20626027      5.67780297   -2.14641672  -22.99192310     -9.45465553    2.08168922    6.96828335
    1   -6.92196741   -0.68079737    1.79484248     -7.62262093   20.13481605    7.10948312     -6.48776643   10.37981910   17.88201727
    1    7.20136125    0.83346046    1.45907144     -3.78651993  -22.00320146   14.59229335      1.81734575   26.29993549  -31.72895292
    8   -1.76981821   -1.81498599   -6.71623575     -8.09638435   41.62416737   10.72792621     -0.11133103   -5.29540368   -3.84683717
    1   -2.74894968   -1.99406038   -6.68428371     -3.65212933   -9.94101660    4.87156049     -6.74028766   -6.22864363    6.05520625
    1   -1.35640117   -2.64871977   -6.97420571      7.66102405  -18.73838190   -8.91515100      3.32989434   -6.08953848  -16.15421188
    8   -2.01529019   -4.75419905   -4.20099782    -10.74430121    8.86224340  -15.04220705      0.96593949   -4.80259257    3.10800587
    1   -3.04181740   -4.72863347   -4.18287259     11.33046885   -1.49816025    5.37921763      3.86969282   -0.54398285  -10.60257188
    1   -1.83759305   -3.94726284   -4.76584725     -3.88501087  -12.60558035   11.69696371    -23.96253135   -2.20146324    6.45419979
    8   -1.44448873    5.53604129   -7.01082556     35.59440241  -36.95061305  -12.13393936      0.39357571   -3.44088297   -3.17866514
    1   -1.27132480    5.01387415   -6.19167461     -7.58802774    9.32911729    9.64663004    -31.82631935    3.71803242  -12.26851727
    1   -0.73874255    4.99993230    6.90865382    -21.44720914   22.26974356    8.32907966    -26.40380683    4.06197448   21.74221469
    8    4.97425602   -4.68679541   -2.97079384      1.61124145    2.08434930   -0.26156103      1.00239001    7.83111557   -2.18729875