 BEGIN_INFO
   #
   # This is a XCRYSDEN-Structure-File
   # aimed for Visualization of Fermi Surface
   #
   # Case: Tight-binding calculation
   #
   # Launch as: xcrysden --xsf HICOLM.XSF
   #
 END_INFO
 # estrutura final
CRYSTAL
PRIMVEC
     659.60325109       0.00000000       0.00000000
       0.00000000     659.60325109       0.00000000
       0.00000000       0.00000000     659.60325109
PRIMCOORD
  300    1
    8  182.80357368 -233.98181746   34.05677637   4317.91400722 -706.17697208-4949.35189733    -28.40885545    5.69752572   31.56709418
    1  187.39505421 -238.79651500   34.04126399  -4345.58936292 4561.12517564    9.16416709   1119.27169811-1758.63592612  749.31029171
    1  182.77943744 -229.91093952   28.83296236     27.67535570-3854.94820356 4940.18773024   -666.51096915 1677.30024084-1246.30395383
    8  127.39353600   63.92096903  -26.85588362   1127.15976158 4393.48163904-1863.12858145   -103.45275929  -36.11682113  135.70082634
    1  124.09253610   70.18623004  -25.25664207   3178.78871418-6008.75286252-1544.98361773  -1455.55389432 2192.33429498  811.03294235
    1  132.00895401   62.20843031  -30.51273235  -4305.94847577 1615.27122348 3408.11219918   2596.85541418-1448.26680349-2242.07553279
    8   83.67871909   39.09090530 -266.06884491   2842.53168249-1272.72242745-3329.09797472   -124.05513455   55.13280533  145.08350141
    1   82.21754631   40.90803012 -271.38663809   1361.79740428-1685.32665235 4906.47561455    523.01249259  -52.59810750-1691.85111075
    1   88.23351123   35.88913493 -264.37723639  -4204.32908677 2958.04907980-1577.37763983   1445.93544685 -822.69800254 -612.59603804
    8 -112.64141615  138.54869719  199.78798728    448.13405363 1150.00637287 -927.09952588   -140.63342574 -244.72985265  182.01365299
    1 -116.48867939  140.26854793  197.48904436   3429.17101700-1497.25644409 2017.52626762   1219.49170787 1860.71644501-1357.87896777
    1 -108.20722623  138.18698974  201.00368875  -3877.30507064  347.25007122-1090.42674174   1001.02162671 2013.25771284-1532.43218978
    8  -86.57434925 -276.92985068 -138.96076759    314.53428534 2009.02327969 -884.04939000      6.64686373   26.76628506   -8.98209195
    1  -91.31501104 -277.09824620 -144.46231543   4559.77234979  186.95295406 5276.00582119   1572.98197054  201.16303387 1733.95750184
    1  -81.49171095 -274.61571879 -134.39628671  -4874.30663513-2195.97623375-4391.95643119  -1678.05936788 -626.30204410-1591.06381623
    8    9.68875911 -126.05587350 -246.59469836  -1419.54275867 -245.46528847 -543.24457965   -149.37169266   71.84089785   42.97922117
    1    8.51116930 -125.35564378 -246.14434902    475.82581985 -225.04005617 -124.25445150   2567.69468822  545.18938945 1042.52924626
    1    8.16325368 -126.88868780 -247.74572197    943.71693883  470.50534463  667.49903116   -206.65845848-1698.13281789-1728.95047628
    8  117.69950165  -51.54721943  254.26969372    134.68394829    3.99355353 -141.49273664   -230.08933061  -25.57197424  209.70470766
    1  116.24407823  -54.40218827  252.10196415   1258.42623786 2383.98741773 1763.15946112    599.26061502-2014.77158106-3226.80568575
    1  119.42862536  -48.67159769  256.16636938  -1393.11018615-2387.98097126-1621.66672448   3055.49690617 2421.09600991 -102.00507653
    8 -224.29474438   -1.14653784  147.03311354  -4725.52788697 -262.89157711 2860.03619480   -177.76904124  -10.14150362  107.52675752
    1 -226.86529978   -2.51947502  149.18725419   2123.99415204 1067.44990857-1747.33478895   2022.22586231-2284.68507906  -54.39089990
    1 -227.48691170   -0.09313760  148.36623782   2601.53373493 -804.55833146-1112.70140585    799.64651766 2445.39267991-1653.33059595
    8 -175.27080944  213.80156405 -280.85387414    210.67404576  312.14449897    3.64471858    517.88889328  263.24659511 -124.87836273
    1 -174.44976571  213.28697177 -281.59130473   -170.92286733  157.90286934  175.56344861  -1372.38474460-5029.89129615  409.80926820
    1 -175.07018415  215.12514280 -280.40477619    -39.75117843 -470.04736831 -179.20816719  -3310.27451372 1076.20327670 3807.69253288
    8 -122.71849022  197.65301295 -181.49150018   -270.89325451 3463.89025763-1547.05346158      0.44535949   -0.55014732   -0.03876228
    1 -116.50736607  199.61434521 -182.98077522  -5893.11313648-1840.38311519 1403.70062045    578.26240386   13.45555610  -60.86254730
    1 -129.21157617  199.38388012 -181.65190070   6164.00639099-1623.50714244  143.35284113   -586.30336255   -4.62884976   60.77759472
    8 -177.54231170   30.02470906   49.93005467    209.47881836-4523.22973808 6713.20737877      0.50494030    1.46522900   -1.43370802
    1 -180.51359343   25.07772281   51.90122715   2766.01394251 4612.52495927-1845.25741188  -1783.65457376-1469.89915552 -919.89569913
    1 -174.34845620   30.12784298   55.14500257  -2975.49276088  -89.29522119-4867.94996689   1775.11041303 1445.98694097  943.66473086
    8   11.24893005 -251.97155456 -255.52401261  -1286.90524629   -2.86494270 -110.78208959    304.47980309    0.85146475   25.73027467
    1   10.33420422 -254.85894266 -255.48065632    647.84188288 2198.47885053  -37.20327264  -2414.06933475 2069.88592172 -293.48236521
    1   10.34563058 -249.08786172 -255.72388688    639.06336341-2195.61390783  147.98536223  -2419.39835789-2083.31464675 -114.85554424
    8 -201.12673792  215.94526582  295.54104926   2624.72967540-6824.84253296 3280.69146760    -49.05919266   12.39765661   46.39934396
    1 -194.49442970  212.19826284  295.01610824  -6416.60797949 3623.49875864  508.94064762   2514.76946355   57.76046239 -966.90185709
    1 -205.13477868  212.55855247  299.54859097   3791.87830409 3201.34377432-3789.63211522  -1946.52557285  913.24486892  619.28733954
    8 -297.09330654 -148.98706935  -96.38841872   1183.70860091 5692.57285072 2277.09477988    106.85602279   92.52816247   40.83905905
    1 -298.59918018 -144.59679614  -94.71807674   1319.55440305-3920.14746329-1492.36524476  -1742.28401636  660.60012351  187.61351988
    1 -294.05070102 -146.87672422  -95.45187468  -2503.26300396-1772.42538743 -784.72953512     42.41178082-2133.07116358 -839.15285831
    8 -133.39428067    1.14736504 -207.65881887   -412.22328048 1293.61996134  -47.25836523     50.27767518 -151.20925238    5.02905747
    1 -136.75665341    0.95793577 -206.82788804   2689.16976461  197.15522708 -669.73473549  -1461.64906032  841.99490549  256.43135314
    1 -130.59241802    3.04923197 -208.54873875  -2276.94648412-1490.77518842  716.99310072    663.40549145 1559.02052520 -336.40868179
    8 -293.50103802   -0.80736686 -296.89476199    476.12281453 -147.94342190  195.60054630     46.38990546   -1.26375641   19.00769305
    1 -294.97822603   -7.89805379 -297.62413933   1449.45465368 6803.68133743  713.18643674    102.19238226 1871.41119232   74.41835850
    1 -291.46529798    6.11109771 -295.93589892  -1925.57746822-6655.73791554 -908.78698304   -838.08433410-1851.53415751 -375.60303051
    8   80.05577476   82.79912450   31.28480504  81522.74756756****************************   6699.88068338-5023.12777822-2911.14594385
    1  120.67533500   71.52644876   23.91362618  **************12184.20898248 7963.87124750  13698.7448970423490.5075675514472.45626406
    1  114.98090423   74.83606285   27.18757582  ************** 8578.96961120 4418.88457425   7847.4767880429034.8479492815647.13354278
    8  278.07196619  142.00110780  107.22998833  -1515.96833915-2077.66135119-2408.43539409     81.06943051  134.76998457  143.36569758
    1  274.65995449  143.75339921  105.22508548   2937.43492627-1523.17453083 1718.27817291  -1333.03257705 -185.09211758-1264.83537756
    1  279.69032666  137.86643603  106.42560109  -1421.46658712 3600.83588202  690.15722119     44.87943940-1954.38075467-1012.97663645
    8 -105.82795099  171.17713200  -53.39206156   5498.65315273-2870.84391116 5783.92179143     16.31699867   -8.63556856   17.02177321
    1 -103.20479816  166.87825163  -51.23115814  -2406.12529645 3908.88139983-1989.13231748   -438.65124913-2140.19781615 -941.53198223
    1 -102.44699626  172.34110187  -49.23740049  -3092.52785628-1038.03748867-3794.78947395    179.03038370 2277.61123461  671.97847220
    8   40.39583579   44.95945305  175.41346194   1855.47499668 1564.56205729 2875.79986273    -21.81227299  -20.39458974  -52.21553864
    1   34.79507305   44.24586054  178.40085116   5275.99954686  680.98447915-2788.63946988  -2297.30004764 -281.17470033  887.45151689
    1   47.75433157   47.28337125  175.52344277  -7131.47454354-2245.54653645  -87.16039285   2684.21513673  895.44440102 -251.99217912
    8  111.89394260  250.54413883   50.07111748   3171.55299402-4261.71360457 -125.84181968    -39.18841498   69.10575135   -1.13816466
    1  108.80438825  244.04547265   50.80286987   2977.40325105 6230.45872583 -703.34194212  -1378.64118783-1967.35279091  271.93708796
    1  118.36229477  252.59891484   49.19979175  -6148.95624507-1968.74512126  829.18376180   1951.04499571 1099.40894347 -289.60638462
    8  -99.24495683   25.93916307  169.15281159  83736.66083276****************************  ************** 1833.89529873**************
    1  -60.90638807  -13.28404027  112.69266588  **************42856.9412394961685.15347057   2638.0965905366504.6387206714507.27324763
    1  -60.97920693  -21.11415095  108.47349494  **************51457.3895196766363.42471133   4322.7953513265901.9477264521844.83778978
    8   60.46612357  -65.98163886 -229.57685495   5607.40977436-4169.78203766  211.09303817    -73.89545648   55.96580115   -3.35381574
    1   62.73313204  -69.47113418 -227.12805788  -2028.66473986 3094.50165564-2154.49055217   1191.98735704  303.83095103-1496.57192493
    1   64.50959031  -67.17873611 -231.79595775  -3578.74503450 1075.28038203 1943.39751401     -9.54626045-1180.62910249 1553.06744877
    8   10.89499224 -265.66726380   79.82066169   2482.26794093-4920.52643011  592.00148666     -5.98498790  -94.29583845  -57.67663862
    1   11.57599936 -271.03125278   77.83965096   -628.96546492 4946.92388835 1825.80325441   -283.93177010 1164.34020267  255.41626451
    1   13.15215806 -265.63248433   82.76674772  -1853.30247601  -26.39745823-2417.80474107    378.58605040  332.56865940  660.50182176
    8  -79.51714577 -305.46685410 -326.58468370   2148.27755064-4811.20097214-1398.21530763     97.57584331 -217.25073680  -63.12082694
    1  -79.59078492 -308.77055224 -328.19789036     13.89939721 2711.54572860 1304.43133271  -3465.08112261  953.90490438-1002.44612678
    1  -76.84032533 -307.99515944 -326.66673445  -2162.17694785 2099.65524354   93.78397491   1916.34869284 2494.85578450 2004.40769984
    8 -269.66025657  275.23639108   68.89473392    978.89086648 -216.48026551-2756.05086136    107.40741986  -21.51437652 -289.95277020
    1 -273.42005093  273.61885437   65.85594196   3393.51033861 1454.04889731 2709.89629037  -2100.57036606 -263.72653171 1862.87287839
    1 -264.78521874  276.61114854   68.81502384  -4372.40120509-1237.56863180   46.15457100    395.92302125  605.46337644 2739.18138052
    8  258.80960999  185.39370792 -142.67262736  **************92294.19391328**************  16365.05440456-1704.8827787815973.86767995
    1  219.46213715  227.18748238  -86.60601906  42995.56872851****************************  -5290.39400561****************************
    1  221.37664401  228.04655856  -83.89539401  40919.63779989****************************   -383.68470797****************************
    8 -236.54047702  148.57100830  178.33123190  -3634.85630941 7223.73316553-1057.02667332     78.19327712 -156.34915130   22.78144448
    1 -240.11925430  151.86163672  177.79722439   3152.89534644-2960.18202645  478.56672095   1886.72633401 2465.27221274 -281.96041368
    1 -237.03205795  153.37369103  177.68102616    481.96096298-4263.55113909  578.45995237  -3127.58688873   17.63117294  -79.50927445
    8  113.01336275 -237.77816195 -210.02917854   1885.97495350-2019.23565430-3810.40408677     82.51475380  -94.27592242 -173.20530879
    1  114.57793359 -238.76230931 -212.49642529  -1128.27371111  823.71517125 1893.70216539   1717.47041565 2912.64248566 1295.55813537
    1  113.90333674 -239.41779933 -212.51685614   -757.70124239 1195.52048304 1916.70192138  -3030.99474887-1416.36702812 1446.27260341
    8  171.72141865  106.50820135  125.25455551   3400.92882879  723.03163069 -323.45596349    292.65391752   43.50689295  -23.10388428
    1  175.16333758  110.24860169  124.14236484  -3093.01374458-3387.78564031 1006.37372612  -2064.61994741  355.81901206   -9.68334314
    1  172.14014908  103.18118093  126.10583798   -307.91508421 2664.75400962 -682.91776263  -2578.18678239-1051.77603581  373.24881502
    8 -101.08707708   66.74083201  220.77511182  -3843.10698657 -320.70846138  434.62836282     77.90887431  -61.31243191    9.71061279
    1 -107.65347962   70.08418526  219.88759376   6316.06996714-3238.29634516  863.06775634   -809.17938713-1556.74944183  477.57363335
    1  -98.35760284   62.75317983  222.23233229  -2472.96298057 3559.00480654-1297.69611916  -1929.89890770-1034.66655979  270.72802855
    8  260.13862131  276.02848212  206.14988937   1887.73714289  780.94232114-1351.55878631   -171.57368800  -72.58809498  123.34257505
    1  261.50183619  276.93379962  204.89091039   -908.71239605 -443.29261617  706.44837359   3035.18260368-1461.66776755  205.52933208
    1  261.90204672  276.41361020  205.17279944   -979.02474684 -337.64970497  645.11041272   -309.68006603 2614.69301407-2160.23013970
    8  236.90265281  119.96698413  105.66743793   7455.23995969  -44.90310469-2795.41606312    132.17103598    9.70929441  -60.13067791
    1  240.76470003  119.95690421  104.12836764  -3319.64705584   21.93516176 1231.34178082    362.16076400 -453.23512341 3005.27299286
    1  241.56411359  119.92870255  103.98999987  -4135.59290386   22.96794292 1564.07428230  -2061.27051121  446.60634213-1565.94787281
    8 -136.31519311 -149.97556118  177.10988160   3812.66052795 -174.87595977-2905.79766551    251.63387394  -34.12013268 -215.72065484
    1 -133.95922811 -153.48423735  176.82874283  -2016.33100966 3004.28976154  239.97698613  -1659.12435454-1817.50313991 2160.54619289
    1 -134.28886149 -146.78573346  174.10355941  -1796.32951829-2829.41380178 2665.82067938  -2124.65091244 1190.65374780  875.67325421
    8 -322.23426318 -133.19355126  140.23580052      3.16245935 1034.34356804-2877.80994419     84.68574918  -71.31579795  139.45329288
    1 -323.42735832 -133.02157246  137.96379231    786.35956574 -149.33518003 1597.74835214   3997.04262339 1465.58860644-1129.27436500
    1 -321.02561774 -131.89310946  138.42775699   -789.52202509 -885.00838801 1280.06159205  -3924.54771967-2306.68350765-1530.75471761
    8 -256.23271086   14.91412737 -277.86451848  -7185.98809320-1869.00894383-2546.05314251   -142.80319824 -192.49002994 -137.98988494
    1 -258.72243069   15.83563209 -283.57256107   2337.39721640 -863.08045616 5352.52808392   2177.49936035  425.26794976 1555.37220612
    1 -261.35956685   12.02419022 -274.89374598   4848.59087680 2732.08939999-2806.47494140   2466.25592693 1222.91451628  244.51152778
    8  -71.77014707  208.15925892  286.01532360    191.43695987 -647.33860886  709.78015299    -32.12843745   76.76277607  -84.36367352
    1  -74.20605409  207.20478054  286.90939701   1787.65418094  657.84505725 -610.11090955  -3576.94925842-1275.50989510 1172.25893351
    1  -69.02931454  208.12134684  286.21000757  -1979.09114081  -10.50644839  -99.66924345   4086.52275781   57.93926066  167.65604343
    8  217.73415859  -83.95934994  320.17017645  **************29277.63679119**************  -2731.68432626 5868.73577662-2769.38776429
    1  210.70767538  -74.36602755  317.89614226   7140.77408573-9779.75857313 2331.62012843  16049.38173280************** 8072.36183526
    1  211.68151367  -65.50261879  311.30377445   6405.64649000************** 9359.59606423  12270.27374113************** 7276.62343365
    8  207.32822679   32.80998131  281.46562269  -2929.44138633  -44.39676516-1207.65298966   -256.42081533   22.66316599 -104.23708937
    1  205.59672132   38.04780871  281.04920829   1562.57631372-4798.66881869  371.72876228   2042.46859139 2857.29234288  983.63762110
    1  205.81258559   27.53079642  280.54385482   1366.86507262 4843.06558386  835.92422737   2035.87846766-3243.47050751  632.11255740
    8   23.80017448  -84.15446165  262.63822853   2744.30084244-2027.12960961-3638.48027735   -134.86254251   -1.17877837  -69.50039116
    1   30.14647742  -86.13840364  263.11452708  -6011.59238760 1875.47986249 -463.76129332    -81.54197035 -126.95545410 -512.93886267
    1   20.26211661  -84.32611231  258.17158549   3267.29154516  151.64974712 4102.24157067   2183.88939822 -146.79192401 1810.53992602
    8 -329.49886199 -240.21397311 -232.32211884  -1168.71718444 -635.87045293 2956.75899873    117.08458890   64.97459256 -301.42475100
    1  325.01578895 -239.17121516 -232.07039058   4592.04961927 -947.67773308 -205.06500950    864.86718537-1082.86243844 2958.51731859
    1 -325.71868035 -241.97251007 -229.25073792  -3423.33243483 1583.54818600-2751.69398923  -2724.05882666   50.64447319 1826.38415979
    8 -291.24159875 -291.11561098  253.57818183   1752.20914306 -693.45442776-1050.57438012   -266.03632299  102.60969946  160.82669976
    1 -289.90317067 -287.16190446  250.56540298  -1180.14746241-3577.00761830 2701.28582541   1931.26929450-3217.37300524   51.94032846
    1 -290.57669655 -295.86654776  255.39198655   -572.06168066 4270.46204606-1650.71144529   2291.57173510 1587.63692072-2604.42253175
    8 -164.11028968 -202.16288671  201.45278904  -6084.74629974-1351.77509104-1645.09351900    191.87753932   50.81437241   53.25479188
    1 -168.21252106 -200.50462934  200.78294305   3576.06653997-1416.33311244  588.92624166   -670.26408786-3394.54292825 -737.94020191
    1 -166.97335734 -205.36982996  200.23925184   2508.67975976 2768.10820348 1056.16727734  -2374.84441083 2588.02465372 -107.69742255
    8   77.59506693   97.19681533  189.47201701  -4027.50368882-3293.20077807 1711.12576776    -18.17739920   42.05019498  -30.22895148
    1   71.50406362   97.82348669  189.29707683   5683.45922855 -591.09937699  166.36784773   -966.69785368  581.63850092 -179.37669624
    1   79.42652148   92.87746847  191.56001144  -1655.95553973 3884.30015506-1877.49361549   1238.76568835-1253.23528958  645.79967705
    8   19.10778244   31.90246674   30.39254521   -690.89902582 -350.68709636  212.85643297    -51.86578418  -93.50029285  -18.42941421
    1   18.30387845   30.66427180   30.40347582    289.11886401  497.20454690   10.86846298  -2088.28597615 -746.81225617  637.66466780
    1   19.50217173   31.65480863   30.14332397    401.78016180 -146.51745054 -223.72489595   2427.79523851 2363.82011812 -210.14379817
    8   56.87796757 -237.08501412  -14.71836102   1010.49777358 2553.59621801 5100.05815547     37.45513053   95.67253632  185.60891817
    1   58.15671443 -232.76317664  -13.39751206  -1125.88476270-3803.13906208-1172.66885388     48.08862817  651.21545977-2267.88835435
    1   56.74379312 -238.51513964  -10.25917205    115.38698912 1249.54284407-3927.38930159   -643.12518891-2168.92780454 -678.47170614
    8  140.53435077  125.91555861  317.65960761  -1965.80820303 3327.01286548 4270.53930152     33.98523104  -79.73144316 -235.32164655
    1  140.03285247  127.52757258  320.39977199    463.73742397-1287.85506404-2095.28541741   2240.10260017  625.55647599 3434.36631483
    1  138.68487517  128.35863822  320.19154174   1502.07077906-2039.15780144-2175.25388411  -2233.18480820  807.90270189 -798.87806246
    8  207.14368509  185.10197765  164.03774395    434.82729259-1340.19776412 5407.73095245    -40.40866492   61.01573725   71.59138488
    1  209.11028129  182.04421976  162.17806766  -1661.07935289 2580.00486739 1594.60938515    912.88701879-1349.86578983-1577.58219317
    1  205.87851506  186.37676946  171.30055253   1226.25206030-1239.80710327-7002.34033759   -267.89997531  386.72067602  442.48193767
    8  219.43351752  101.14565294  -37.20534067  -1016.00988745-4664.85956375 -208.44532014    -49.78560434   44.95930534  -41.70021154
    1  221.91917433   99.98796228  -35.56041298  -1928.28153902  892.01402275-1275.52570109   1707.03356313 -128.17583062 1018.72818435
    1  216.21124792   97.01147037  -38.82895378   2944.29142647 3772.84554100 1483.97102123   -833.89566004 -572.78953348 -436.83513901
    8 -135.01554122 -114.21415045 -188.73590380  -2344.10142823 2099.44514861 1829.12711106    109.25269468  -98.06924043  -85.15799629
    1 -137.50010726 -111.29810812 -191.21483964   2164.38310554-2543.48359361 2180.12182279   -941.36616981  893.37584530  438.93654596
    1 -135.23345900 -114.70794354 -184.15987140    179.71832269  444.03844500-4009.24893385   -793.25336941  663.36551854  912.98570005
    8  125.42802273 -294.20861319   28.27262528   2730.08198991-1252.69850481  136.79313592    -79.48950205   34.94585139   -3.62129105
    1  125.97713799 -300.60299152   29.72611473   -254.79504770 3020.53888353 -686.84992232     50.11498841-1510.88481086  348.35919031
    1  130.67869347 -290.47046893   27.10857874  -2475.28694222-1767.84037873  550.05678640   1208.27030773  951.94864720 -290.64455766
    8  157.78023126  254.28608111  279.22435961    207.70311204  595.62996403 1616.14836492    -50.96997556  234.98965172 -149.77374662
    1  157.33640431  253.11437881  280.00133053     82.39537681  217.02017868 -165.31794046   1666.33173491 1177.58325726 1733.93964026
    1  158.47461981  256.23049493  282.66486806   -290.09848886 -812.65014272-1450.83042446   -720.43387600-3005.21061651-2168.17943679
    8  123.33015765  270.61356838 -175.07490737  -1719.73343333-1051.85203471 -222.55711262    109.41517178   75.18559999   11.46091387
    1  124.32113432  265.04038417 -173.94833436   -465.92753272 2567.37645512 -521.12341327    -39.19502188-1803.16898532  279.95598299
    1  118.60681588  273.86469016 -176.67816474   2185.66096605-1515.52442041  743.68052590  -1649.31630954  722.56806017 -479.57335661
    8  259.90365013  277.33530854  -61.42775330  -2912.63255785 -740.08422263 -355.37277091   -112.76748190  -27.95033826  -13.52970298
    1  258.30643492  271.93263486  -64.76114033    749.46185572 2550.36668470 1573.71633363    150.84770004 2509.35708179 1571.14595671
    1  255.30944328  281.16876720  -58.84727961   2163.17070213-1810.28246208-1218.34356273   1639.51386105-2065.44522638-1356.51547046
    8 -107.75324705  -92.21350771   23.57482757    343.51606236 1449.05389571-2143.37196120    -14.07092295  -53.71565486   78.86115894
    1 -113.03625063  -89.78577546   20.93096739   2485.95705081-1137.96551887 1237.71673610  -1413.16361559  660.41758215 -712.90092326
    1 -101.73158179  -91.54319483   21.63552181  -2829.47311318 -311.08837683  905.65522509   1635.21835335  192.04865888 -539.33735911
    8  -41.03421678   33.24294677  182.90883213   -359.84199486-2549.12516513 -460.04218314     12.13487053   93.41899448   15.14743747
    1  -44.63073603   31.74246551  177.83841428   1691.11721971  698.97724773 2384.28754150   -965.07318594 -409.82701077-1348.40611732
    1  -38.20342697   29.29110845  187.00084792  -1331.27522485 1850.14791740-1924.24535836    768.45041464-1070.60099492 1106.74971377
    8   50.87733542   54.73766556 -216.30451272   1901.97341446 -640.43306047    7.94470288    -88.88857696 -150.93927554 -212.65147128
    1   50.82036983   56.85661688 -216.78712830     34.06507767 -654.17407949  147.78984510    380.20972556-1876.19976743  845.56025498
    1   55.18304519   51.87652111 -215.96230549  -1936.03849213 1294.60713995 -155.73454798  -3281.78420865 3382.82788651  476.03163376
    8  239.25072191  182.78165949 -195.02897142    366.37636015 1583.52088468  874.92361911     67.51297235   26.33723325  184.86751801
    1  239.56993826  189.49751698 -194.04940056   -146.36202353-3191.04993513 -453.68941180   -337.07567298-1838.55543772-1198.92094905
    1  239.79469912  178.96931548 -193.98088100   -220.01433662 1607.52905045 -421.23420731   -500.48328678 2116.94297100-2082.31262855
    8  115.25826273 -320.32850531 -281.59313057   3525.79334924  876.23009099 3527.85361919     40.14293042  -64.70280000  142.75412156
    1  119.42241339 -316.81218302 -278.06349220  -1966.17714972-1645.34164747-1670.41888672   -829.52758857-2817.63816750 -907.66899946
    1  118.65487126 -322.04343549 -277.53767111  -1559.61619951  769.11155648-1857.43473247    -17.37636535 1690.74810336 1189.22528928
    8  -86.85818674  165.23003689  -77.15542192   2748.45526039 5805.01699413  844.90118996     36.92626602   48.47114592   68.72759776
    1  -78.25241784  173.73831270  -76.11545882  -4381.65982660-4334.38173814 -529.89321546   2025.94933195 3488.93369702  596.37953819
    1  -90.52398818  168.51850404  -76.45043818   1633.20456621-1470.63525598 -315.00797450     84.39465573 1052.84784175  -12.28226077
    8 -276.40038119 -239.96433778 -178.66796217  -2717.88684496  424.06059027 -134.83893005   -306.04682018  105.23611987  -16.73198494
    1 -280.51474874 -240.38190443 -178.79029044   1750.04832619  149.69083569   54.18786554  -1136.87522635-1296.20516660  326.63561303
    1 -278.91935089 -238.35235280 -178.88703383    967.83851877 -573.75142596   80.65106451   3612.77041519 1034.81141175  245.13234456
    8  322.60497948  114.10848732 -101.48237017    -33.20667647  -64.23387742-1804.56471417      2.78853910    4.93547257  134.44030471
    1  323.60289872  119.28639782 -103.67211057   -459.96404133-2385.93940258  997.50170755    278.04398791 1489.71300460-1127.32718109
    1  321.53405878  108.78930802 -103.25878582    493.17071781 2450.17328000  807.06300662   -322.14966651-1568.81925825-1006.25831379
    8   36.90193884    8.96858638   90.15694034    108.50464678-1295.63021471   92.29837746     11.97024947 -177.76363880   13.32036212
    1   32.94084266    7.23748244   88.39612872   1744.64000953  747.10993233  776.04188310   1274.60469370 1467.58069762  564.02835628
    1   41.08469920    7.69771539   92.11796014  -1853.14465631  548.52028238 -868.34026056  -1444.35839972 1335.91399465 -739.21895657
    8  208.69924326 -124.86977880  -36.33514513     54.97370414  -89.55087143  395.42166683    -89.20582828    5.66854383 -179.20171051
    1  208.68629981 -124.92111108  -34.96604361    -50.73030030   75.69052863 -224.61010866  -1489.91372158 2032.67239344 1934.67204989
    1  209.14644868 -125.48594028  -35.38645039     -4.24340384   13.86034280 -170.81155817   2329.09219326-1861.79302193 -303.26286206
    8 -326.98769049  240.47848999 -229.41897101  -1590.97208555  381.11939689 1007.80056251    110.68527640  -26.77715438  -70.14895175
    1 -326.03050275  239.95112575 -223.70479877   -451.44747005  245.97476988-2636.69439989   -117.38138208  -54.72603909 1859.58004719
    1  328.17963659  241.83918439 -232.92942126   2042.41955560 -627.09416676 1628.89383738  -1640.33241589  479.47320565 -746.71769166
    8   85.44452738  180.72383095 -144.31775822    245.18684010-1322.33815236-1187.10319820    -19.08861269   90.30971805   85.78455900
    1   80.60798510  179.36148694 -146.70211827   2217.90886431  615.93752128 1085.13416864  -1481.87864796 -740.34189623 -966.08673392
    1   90.81538387  179.16622870 -144.55634295  -2463.09570440  706.40063108  101.96902956   1741.86907077 -807.72872767 -293.06529239
    8  208.61143396 -276.71777467  -33.28900633   1999.00731412 -347.48006822-2497.06040824     51.46862598   -6.29985842  -63.36556577
    1  209.36740490 -283.06027109  -36.10748563   -357.69129249 3026.76828955 1341.35769518     34.64677187 1975.74164131  550.38894430
    1  212.05415165 -271.10975055  -35.71671680  -1641.31602163-2679.28822133 1155.70271305   -849.73234828-1880.47089252  451.72785364
    8  -96.26307235  161.18003919  123.35335952   -557.34152472 1686.66592727 3877.40896039     -8.13229654   23.97658858   53.33581680
    1 -102.25728475  161.97715142  127.04759339   2865.40884593 -381.34017074-1766.60318500   2591.96401540  259.57057987 -262.92964390
    1  -91.43466245  163.90997094  127.76741240  -2308.06732121-1305.32575653-2110.80577539  -2461.18071941 -635.50783480 -600.46828413
    8  -38.87053926  114.60194210 -254.95809464  18842.14279120****************************  -9512.78197466 2124.40612811 1275.45244919
    1  -15.07858996   59.67531252 -292.99836442  **************29964.0881658720751.71716261  10063.99638203-3020.33443397 -771.03054772
    1  -28.11228824   60.05312334 -290.86136825  -5865.4497086529727.4436524719566.55860715  12855.14149169-3520.67091285-3235.08490292
    8  153.18259291 -228.02402208 -139.03855748    111.04663757-1172.65195805  339.81205906    -24.28011231  174.12510314  -42.29016605
    1  148.48956422 -228.66214012 -134.26407797   2228.24811496  289.37550938-2261.73541406  -1444.51403230-1150.37598135 1833.64516787
    1  158.12380336 -229.91702533 -143.08776589  -2339.29475254  883.27644867 1921.92335499   1834.96850038-1612.07844385-1155.77757976
    8   96.00205453   58.50774887 -260.88500402  39218.35743580****************************  -3970.50021521 1717.72555675 2470.75850253
    1  132.40984491   41.77512148 -291.01342775  ************** 9073.3937544416341.34094227  11317.36302562-2908.01618258-8174.49931487
    1  132.01524669   53.43587179 -283.69505816  ************** 2745.2249839812333.14848161  11496.83851428-4093.95798448-8627.65919828
    8   28.94358789    0.34802078  -75.88087190   2056.53655462-2448.34332207 -544.47771322     51.32837310  -60.22302312  -13.62483288
    1   26.59783212   -5.54149244  -79.04884982   1125.49292080 2813.98267460 1514.84342054   1032.25273559 1539.69608021  938.70507301
    1   35.61240551    1.10561679  -73.85100136  -3182.02947542 -365.63935253 -970.36570732  -1846.87549666 -584.36129504 -722.01581859
    8  -52.07451237  273.41958194   98.92536930   1743.09955932-2468.08194079  407.80411352     67.63625708  -98.72925512   17.58495666