 BEGIN_INFO
   #
   # This is a XCRYSDEN-Structure-File
   # aimed for Visualization of Fermi Surface
   #
   # Case: Tight-binding calculation
   #
   # Launch as: xcrysden --xsf HICOLM.XSF
   #
 END_INFO
 # estrutura final
CRYSTAL
PRIMVEC
      14.45114398       0.00000000       0.00000000
       0.00000000      14.45114398       0.00000000
       0.00000000       0.00000000      14.45114398
PRIMCOORD
  300    1
    8   -3.09752554   -4.19715166   -0.52149287     43.14784610  -44.11401125  -87.24584360      1.50171333   -0.27273223   -2.99214486
    1   -2.30433609   -3.88390677   -1.00657067      1.11724788   44.76973146   49.26035361     10.09623210   20.45148283   40.70905485
    1   -3.11415402   -4.92423963   -1.21712315    -49.00244857    6.19788259   42.98884248    -42.26848196  -25.22888302   18.55785106
    8    2.86263125    1.03056769    2.26342751     39.57591233  -55.55340538    6.35633797      4.02470410    4.10666122    3.51502597
    1    3.68230126    0.39452687    2.13331712    -52.51971912   65.01199660   -2.56124954    -16.68911122   -5.84839453   14.61291888
    1    2.97840819    1.77988791    1.66157155     13.73317451   -3.52656066   -6.81021668    -30.18809413   25.57250500    5.55618417
    8   -6.53095375    4.63569744    6.57216511     -6.21996965   28.12146504  -18.16335590     -5.26488612   -0.21339310   -3.26220008
    1   -6.24232691    5.49433214    6.96550530      8.55304338  -23.88503811   19.31605725     -7.67571481   -7.40443764    2.05616001
    1   -6.73784237    4.98930732    5.67959222     -1.46908486  -18.30029978    0.91592650     -9.42401046   18.02632176  -22.97353021
    8    0.23105044    6.60919432   -3.68941038      4.06326646  -14.69409255  -33.55766231     -0.70855983   -1.31409319   -3.30971236
    1    0.42511923    6.01711670   -2.96659274     -0.80403576   -6.57108069   20.25110308    -33.39755467  -35.13728883    2.63719779
    1    0.17265784   -6.98887222   -3.29952624     -2.94052649   17.33031262   13.02939971     -1.71947610   -7.33071862   24.93228464
    8   -3.02626161   -5.60660884   -2.72633440      9.75178113  -32.26228692   22.27489854     -0.81106553    2.79374314    2.80071297
    1   -2.66122367   -5.69230192   -3.62253315      6.12927713    1.63754653   -9.50519237     25.98201489    1.42346628  -10.69176468
    1   -2.54801378   -6.33576061   -2.24620139    -13.97434907   16.56643178   -6.63990516     15.90148601   16.22110807   32.34749387
    8    6.44362888   -1.07921613   -2.51359030     17.70859224   -2.20102314   -1.64663580      2.52974250    5.81804232   -1.15900578
    1    5.73217492   -0.62695321   -2.93555229    -23.21342891   13.11280192   -3.86935182    -19.50023703   20.16812713   38.06968108
    1    6.85143453   -1.48567016   -3.28758556      7.69160310   -7.26273583    8.42563796    -21.27242882  -26.21276647   33.05586075
    8    4.52474251    1.82791361   -6.13170854    -12.93756873  -10.70094758   11.58532095     -3.80172237    5.23849501   -2.00228722
    1    4.49394545    1.39531941   -5.22946346     17.45426951   15.69140200  -22.20413080    -18.05411760   -0.94165632    0.96736110
    1    5.45526176    2.14626925   -6.26512739    -11.23399936   -5.17488060   19.12301505     25.09881703   -2.92919543    6.82596059
    8    1.03784805    5.23787010    6.73934309     16.78609323  -13.81079985  -64.95198865      0.93370746    1.76058412    1.24925153
    1    1.16497407    4.26044741    6.79593152     -6.40000987   21.97417540    7.50004771    -18.00262468   -5.27944606   -3.49152455
    1    1.25357638    5.40647911    5.74835954    -11.98939676   -7.58807471   58.52077997     -1.07485102   15.20342047   -7.32312929
    8    5.85129336    3.14223412   -2.05839414     -5.49457744    1.83031762  -19.97265295     -0.32866626    5.33174370    6.44486702
    1    6.53931180    3.53425160   -2.65287754     -4.65311416   -6.77432500   16.56632157     -3.29916405   20.05371844   -7.11290636
    1    6.23907699    3.18422974   -1.15791465      3.51885408    7.19387122   -6.40010577     12.31065565   -8.90625365   -5.79901255
    8   -7.14917997   -5.85195042   -7.09898890    -40.82741409  -33.26136930  -13.26554400      6.02837108   -5.45951272    3.37214500
    1    6.29979501   -5.97895679   -7.12976003     35.50778808    6.05423826   -3.70005183     -0.32836926    5.00937576   -5.25260872
    1   -7.05894318   -5.04317083   -6.63013318     -1.19013842   30.63458952   12.94039369     27.24592887    1.41008721   -5.44898722
    8    3.13777370   -5.28822924    0.20410356     -7.06372371  -64.99573599    2.27319049     -4.19088185    2.01436343   -2.04352520
    1    3.05915554   -6.29886035    0.09731526    -11.77627931   45.76585995    0.43234986     16.83184554   -7.42443859  -11.43856157
    1    3.99573604   -5.17361091   -0.18873985     16.64761218   22.00627381   -8.48767161    -15.95114158  -20.25454154   -0.60277579
    8   -1.73567476    0.82784105   -0.40019724    -19.55992682  -15.23151764   23.08602789     -1.49883214   -9.63286591    4.69199190
    1   -2.68067515    0.93034295   -0.26174415    -14.73296221   10.10419400  -17.17708222    -11.70567455   -4.31962016   11.56330040
    1   -1.54057986    0.31536422    0.41224275     18.39353841    2.83168839   -6.42153747    -23.56413164   -8.68384486   -2.63364210
    8    0.33306117    5.24371982   -1.25569979     22.39113037  -70.04884982   -9.30226995     -4.03824472   -6.20562191    4.96067383
    1   -0.42040671    4.69618228   -0.93886069    -14.28614871   24.63320636    4.80756972    -10.36959945    1.21314914   22.53159605
    1    0.89828228    4.44559045   -1.52588427     -6.55266471   43.03445982    1.67882355     31.26641356   10.32407233   10.52299858
    8   -5.34159334    1.17160160   -5.63958450     -0.58018709  -10.88850002    8.60045260     -5.16668201   -1.72909529   -4.61698945
    1   -4.96787989    1.51502560   -6.47805740     -4.22689997    3.43791971    3.72608002     16.42247040   -3.12240653    9.04095356
    1   -6.24909905    1.51413192   -5.68392184      1.90837940    1.99164502    0.89371066      7.83942392  -16.23804426   10.84032640
    8    4.75503825   -2.08758563   -4.70481231    -11.55707724   -7.21147924   -2.76244642     -3.57177727    0.22858645   -4.23028139
    1    3.88422872   -2.42758826   -4.45688147      5.63657044   -8.92490899   16.11936025     14.88222104  -13.71285772   23.55732796
    1    4.51760719   -1.64143862   -5.50515832      6.02401401   17.22814731  -19.88727912     25.78760822   28.66706109   -4.61039399
    8    2.00143931    6.95876509   -5.73229774     21.54748628  -19.04552587  -47.31579302     -4.10701317   -0.91579785    2.67177791
    1    1.74022939    6.32793397   -6.48616901      3.81998906   28.18604244   40.91695292     23.74651585   23.44464906   -4.62115906
    1    1.36991218    6.79441329   -5.02962253    -17.90995507   -7.39870977    5.50875682      2.87381465    9.70489052   15.04658717
    8   -4.92520644   -6.38730714    4.34202608    -17.87661918   -5.04836611   -5.04923470     -2.32090136   -9.93198453    0.00643166
    1   -4.78716140   -5.86958924    5.14621607     15.68860985   -4.89991408   -4.23556018     -4.31160418  -11.75762614    6.86612003
    1   -4.04801447   -6.61652442    3.97466860      3.51994539    8.17949003   15.23185873     18.10418862  -26.70619209    2.54407306
    8    2.51857964   -3.35561076   -3.39678457     24.55958183    3.28058160   -5.41509838      4.28216422   -5.09442089    6.22282098
    1    1.75741645   -3.91356807   -3.59279367    -14.19916110   14.07876689    3.41166990    -18.93141014    7.31462910   29.62341972
    1    2.18152820   -2.52954790   -2.99648791    -18.76050567  -10.54957406   -5.22509653    -24.15629377  -12.25973588  -27.07601720
    8   -0.21397656   -3.63571084   -6.96803170    -31.49049008  -14.52568313   -2.08299021      1.40695632   -2.17590038   -2.10824565
    1    0.62409921   -3.23350201    7.22161226      3.46393985   -9.42186456  -24.99638621     -5.94395185  -11.11150473    7.20490107
    1   -0.54985830   -4.21178184    6.71892028     31.58370974   28.19549927   27.20975217     -8.38941583    1.64332957   -8.01428415
    8    2.46396045    3.40459259   -4.52169275    -13.66105369   -8.02767398  -42.77913892     -1.52611460   -2.85383087    0.66607926
    1    1.78926918    3.27699121   -5.23509672      1.79544450    5.68528458   24.39566885     15.63153908   25.50428654    0.94173688
    1    3.24302072    3.08920473   -4.98992738     11.76409045   -3.09670576    4.30698687     14.15809301   -1.61506483   -1.50051102
    8    2.00390812   -2.87373528   -0.63199984     63.79211274  -24.34063593   29.01420104     -2.73253180   -0.93185215   -3.83971244
    1    1.18519187   -3.15106013   -0.93555704    -57.86344172   -7.36590779  -21.63000945     37.89289391   17.34214613   -7.19480377
    1    2.43687802   -3.75679936   -0.44787091     -5.08684936   28.86140744    0.92849774    -16.00521321  -22.86465885   -5.60562276
    8   -0.27513104   -6.27987587    1.43777269    -25.64229180   18.03977919   33.53963805      6.37564105    2.22724072   -1.30972857
    1    0.57028415   -5.99515485    1.16218177     29.59700672    8.13916569  -14.22909420     17.19854872  -17.96607970  -12.11128656
    1   -0.52865970   -5.54805963    2.08523969     -2.90160665  -24.51062706  -24.60724534     27.39139240  -18.00747257   -6.53349732
    8   -6.43406709   -4.83483490    2.75205535    -24.65147472   22.25064332   32.07173187     -9.76196324   -4.98616673   -7.21698465
    1   -5.92639061   -4.92946641    1.92695425     11.96334895  -19.09754341    1.48021345     32.60831859  -11.03103278    6.57737567
    1   -5.88515919   -5.21716492    3.47423661      2.37684641   -4.72066080  -24.74959331     -2.85550269   16.83167371  -34.20573024
    8    4.53471157    0.96897525   -3.43198853      5.90219423    1.77523340   10.74771046      1.01201122    3.70640978   -4.96704520
    1    4.88938223    1.72275064   -2.93632135      3.32683479    5.13207466   -5.89331050     17.21019195  -12.88541981   16.45881793
    1    4.27313732    0.37528962   -2.70371880    -12.44657718   -1.78324592   -4.57355830     -3.94892652   21.75702311    8.05196272
    8   -3.14782902    3.01899972   -6.25532827     55.65460270  -17.99752555  -15.75086572      0.81732472   -0.88562377   -0.46795656
    1   -2.72073294    3.12413884   -7.11891969    -25.76959399   16.32108362    0.93339230     14.94738450    3.64090431   24.88500823
    1   -2.44959610    2.41568166   -5.86017712    -35.02337511   13.36455830   16.29965490    -19.85791930   13.32356352  -17.97931937
    8   -0.48843183   -3.97404260   -4.26441539     41.54328835   52.66658718  -25.46253189     -1.23632858   -3.33520755   -4.67550446
    1   -0.23942891   -3.70623973   -5.21321935    -15.23589680  -14.85802735   41.01389404      6.44027104   27.85787212   29.67936607
    1   -0.93590082   -4.78924663   -4.40457289    -19.38770381  -33.53547245  -11.89092471     -8.86480691    8.21919703   16.83826294
    8    0.70408948   -1.10234227   -3.21326569    -62.92093781    3.51125249  -27.59834915     -2.14105690   -3.09505252   -1.95791099
    1    0.92973710   -0.98693089   -4.13156860     43.70207108    5.51830668  -14.90251458      3.37391439    2.70746170  -23.40631583
    1   -0.27940514   -0.93371070   -3.39849717     26.57627370  -11.95274831   42.52072792     43.04010788   25.65444216    6.71505999
    8   -0.87276275   -0.74529998    1.69863648    -21.82556075    9.00264740    2.12555151     -3.50048433   -0.04385287   -0.90053745
    1   -0.08005656   -1.07680469    2.16801968     -3.53941253  -13.02071799  -10.36936498    -19.24943353    7.37722792    5.42297960
    1   -1.51179033   -1.48775035    1.71398235     12.69513219    4.01188435    3.40900910      1.76856293    1.22756185    9.91003484
    8   -3.22683243    5.99528702    6.36268083    -17.22339343    6.13273796  -34.70863344     -0.01629844    2.92864564    1.96321608
    1   -3.96610683    6.44540875    6.80263712     -3.32229841   -6.24349266    6.86379381     -7.37126767   -4.51344625   13.53820202
    1   -2.55662305    5.94694848    7.04285158     17.59952404    0.56600527   20.74698317    -10.58553675   -3.15446211    4.20593021
    8    3.44386085   -0.42519548   -1.29193790     13.39189863    7.73099280   -3.46410946      0.64298109   -0.62045476   -4.61118053
    1    3.47159222   -1.37902562   -1.07762167    -19.02665978   13.94185180    2.94130944      3.48092790   -1.67197767   19.09275779
    1    2.55408867   -0.10250691   -1.03544972      6.25592772  -18.06412121    0.61170807     -9.58814319  -20.38855382   29.44727583
    8    6.11369846    3.89460133    3.43872988    -17.20301987  -48.00751708  -34.41700683      8.53992357    5.78684356    0.15935532
    1    6.37474303    4.68111904    3.84975654     15.24676861   46.37339207   21.66244750    -15.01335911   -4.79722226   22.40019267
    1    5.35663049    4.17772759    2.86747005      7.73893704    2.85634832   16.33143960     14.06139307    5.13077344  -27.28550888
    8    4.55902037   -6.13969292    6.95124857    -23.65924249   -3.64897715   25.08994340      1.13124996   -0.16256432   -0.97369128
    1    3.88467692   -6.19878412   -6.80163303     21.10742937    1.00422932    6.99989587      6.29280941    4.21496469    3.51069429
    1    3.96332094   -6.18505255    6.21841351      0.04924568    2.89986026  -29.41739987     -3.27947144  -18.05469400  -11.15722133
    8   -0.99651336   -5.53926245    5.46234271     34.79402251   27.48834211   -3.85283926     -1.85860862    0.95911324   10.94170078
    1   -0.95013435   -5.07397219    4.60455193     -1.11050433   -3.70755921    4.45520018     -9.23965359   -3.89005585    1.20740669
    1   -1.85979062   -5.89756141    5.44388908    -25.49960801  -13.44781877    0.59152534     -0.91741610   -2.11713274    7.01079367
    8    3.70225412   -0.47901180    7.13707539    -11.43679911   22.83742125  -26.32474812     -9.84772133    2.98377445    0.41821484
    1    3.96936194    0.44500494   -7.08389332      1.93601691  -14.94854356    1.39915588    -14.05161333  -24.09634415  -32.11442468
    1    3.42034709   -0.37834819    6.17652015     12.76569008  -10.45182811   30.72859043     -3.27895438   21.69569718   25.04039078
    8   -7.21463381    1.51173125    4.46255069     19.62639709   -0.63639489  -10.35656870     -4.91849046   -3.58287172   -3.54474320
    1   -6.51554437    1.57239662    3.74525738    -29.46681906    4.20461042   25.20732156    -19.12241386   28.10513564   28.10901700
    1    6.75701334    2.36151265    4.40602896      3.76330946   -9.53671213   -7.67156585     24.36303922    7.93185161  -14.73669843
    8   -2.34351177    7.22233457    3.73753121     -9.11372591    9.37823046  -10.69274618     -2.73389226    4.55531666   -6.59539755
    1   -2.39570734    6.77915882    4.56415773    -12.26815094  -13.32647915   28.59079821      4.64780476  -23.76170139    2.95753319
    1   -1.54311350    6.81355404    3.38828049      7.43599279   -1.87362500  -14.82723417    -18.64123515  -20.40139963   -6.08598011
    8    0.37591715    2.60553873   -6.40238522      0.85017245   -2.95677322    7.85106879     -0.73219641   -2.75347419    3.02649761
    1    0.08862047    2.32539364    7.15819372      3.34168228   -2.80517516   -8.75427025      1.05447149  -10.77306309    6.63198333
    1   -0.32912907    2.20321918   -5.84986834      5.46072744    5.30354219    4.91153586     -4.14374873   26.14487160  -17.68407201
    8   -1.60151385    1.32376374   -5.11445866      3.21601918  -38.03725363  -17.91357611      4.29822827   -2.11833451   -2.29030269
    1   -2.07007418    0.92411810   -4.38693748     -7.53810711   16.39119007   30.27576251    -29.55463645    1.02297316   11.48344194
    1   -1.54824910    0.49625798   -5.64252156     11.32365333   11.27476566  -10.77441656      8.95473822    4.71469640    2.25896133
    8    0.66168738    0.48680742   -1.09918939     40.37548087   -7.65686109  -13.79540987      0.99349397    4.10177733   -0.31711082
    1    0.67011829   -0.17252993   -1.81374476     13.37997058   -0.88830286   -8.94194565     -6.18389557  -14.06219913   12.26446427
    1   -0.26313151    0.45662711   -0.86575714    -22.67028273   16.05637948   16.55790554     14.79896520   10.08547528    8.70532261
    8    6.94868501    6.82700872   -3.17197792    -13.20501264    5.74146454  -34.69145637      2.12188795    7.79592852    7.86489496
    1    6.84471243    6.92342815   -2.22717347     -9.73028568    5.71619798   23.79139024     16.20391367  -14.08770953   36.74128015
    1    6.12296737   -7.19868353   -3.54042464     17.27114223  -11.73410789   11.63004618     24.12434157    7.84168403  -56.04072857
    8   -3.40464963    1.95494051    1.87548579     -7.12255753  -18.87233789  -12.40292506     -3.12272772   -0.37345748   -0.00866981
    1   -2.78214715    2.59243533    2.20333435     21.86719778   16.13814173    8.00797958     18.67884746   14.18603235   12.15704343
    1   -4.24247229    2.32321193    2.18038997    -13.78722453    0.16989339    2.19289269    -12.67122372   -3.36186178   36.54826175
    8   -4.07384861    4.73829816    4.12986741     -5.35712102  -29.58484740  -45.85553216      2.90289341    1.14362311   -2.46646450
    1   -3.70939739    5.08937424    4.93752789     14.36981107    3.99100739   21.28679145     11.08679940   18.14335696   11.25445273
    1   -3.38499510    4.12246660    3.76104099     -3.63700615   23.56059113   23.07658065     -7.24106363   -5.13633436   -6.50877039
    8   -6.61721553   -2.27325428   -0.49042354     -3.86480722  -10.83236705  -25.02691765      4.05756840    7.03788637   -5.40359111
    1   -6.43731891   -2.99446576   -1.16019104    -13.87899957   25.69354430   29.13901276      6.52206156   10.10013967   -9.96996530
    1   -7.16622318   -1.61369189   -0.99612260     14.70052581  -20.50634619    5.91271959     19.53320018   -1.50548658    9.47898008
    8    1.76334272    3.01259054   -1.96881231    -14.41705060   16.09417820   32.36845457      3.50461714   -2.13556091   -0.39730490
    1    2.18272642    2.88542631   -2.82358520     -1.66645438  -13.15450509  -17.37438986     15.11592439   28.65529439    1.63408020
    1    1.52870932    2.12445289   -1.63172726      1.08059065   -2.87224186  -14.03975078    -22.50112737   11.26698049   34.06221037
    8   -6.63577804    4.37054469   -3.74882599     -0.76355208  -33.91264483   -5.62958824     -0.40320471    4.25506855   -0.87202334
    1   -5.69300365    4.56277912   -3.92421510     -1.23944500    1.26685719   -1.09029767    -15.44253674  -10.32046751   23.07536232
    1   -7.00662541    5.23950452   -3.62728093     -7.09665594   29.84867879    4.90058170    -13.69348724   -6.04185071    9.79140012
    8   -0.23693109    5.85822547    2.86021922      7.15933437   15.74355646  -12.05045498      5.34369222    6.15691469    1.18717967
    1    0.66945146    5.70258142    3.15076126      7.88302704   -9.64633358   11.92917991     19.57274979   27.82871289  -23.26520329
    1   -0.10405029    6.65119063    2.28886664    -13.04796329  -10.37829668    0.76808284     31.07084929  -12.41368318   28.95636065
    8   -4.04626300    1.14822175   -3.15414157    -49.95801727   -7.00599997  -65.81083213      0.84080705   -0.02087134   -1.91556388
    1   -4.50891866    0.37062003   -2.81745608     13.55874514   -5.80410278   22.82339465    -22.59229545   -2.45937068  -13.62502281
    1   -4.50652998    1.17870195   -4.06301983     32.42264802   16.58390557   36.04557011      7.45844323   14.32107500   23.06149483
    8    3.21020478   -0.70464782    4.46340499    -11.30863533   22.82531623    1.61302045      6.31919335   -4.83565924    3.28774566
    1    2.76242875    0.05317437    4.03534256      5.92994408   -6.14719938    3.93553223     -9.51603105   23.96282370  -21.33510503
    1    3.67983965   -1.10281827    3.71877432      1.61822421   -9.17657144    3.56456922      2.01143690   -1.15897871    0.31269358
    8    2.86113574    6.64989245   -0.74991692     -2.12337812    8.71095019   17.66849556      0.34064020   -0.72775426    1.81787997
    1    2.14023834    6.02112941   -0.61089645     -2.97314702    0.56545387   -5.01460147      4.49117170   10.71837563   -7.00381401
    1    3.13670391    6.47654162   -1.65859906      2.39792272   -9.45218664   -4.70993611    -27.57542986    4.00977725   -0.61345688
    8   -0.65182503   -3.29776348   -1.50705229     -3.26700799  -21.64651872   -2.99373450      1.77699059    2.74668912    0.40041887
    1   -0.70185757   -2.38210693   -1.65964969      0.89474863   41.96987755    9.54381363     -3.83625226    5.48640738   46.45855269
    1   -0.76003431   -3.58528516   -2.41448479      3.71062692  -19.90851658  -14.95434842      2.07481459  -20.71481164    4.14829622
    8    6.46106632   -2.51930483    6.03098657     -6.69526430   -9.36634068  -40.58230295     -1.98279823   -0.57799963    0.63117161
    1    6.40363595   -1.65829481    5.58931280      1.91082421    7.56375773    5.75013289    -18.68075627  -19.17324682    7.12457896
    1    6.37117278   -3.09424335    5.19763096      5.24279764    8.01766211   24.16263409    -33.74933090    5.89196073   16.85958840
    8   -0.46101124    1.58570000    5.76012424      5.26724984    9.24282815   -5.12935528     -0.48856642    2.80473529   -3.68987131
    1   -1.40128917    1.24578815    5.77697606      4.74247618   -6.89779432   -9.78581355    -10.16974094   -9.63345521   -1.70538083
    1   -0.19146012    1.55142916    4.77636124     -8.18012645   -3.66978982   10.21929712     -9.16169022   12.77736108    5.12946811
    8    7.20751484   -4.81419300   -1.78179693     14.28615335    5.38509888   -8.06625457     -2.89409866   -2.47279476    1.89880268
    1    6.24419940   -4.51597723   -1.98330479      0.94714525  -13.46829155   11.50604291    -21.64915134   15.93676920   13.65088621
    1    7.12582585   -5.68278090   -1.25645871     -8.82986447   14.16035702   -5.69419092     -3.34850892  -33.22445847  -18.29866661
    8    3.87532131   -2.53991616    2.64680420     11.55218763  -29.72542939    0.17398150     -3.56564893    2.73337062   -4.67813513
    1    4.35179593   -1.81123323    2.27453077     15.90157799   15.64274123  -12.29599387     12.12630500    1.36249000  -24.03390171
    1    4.53349011   -3.29895471    2.38467971    -11.50702235   15.11763648    0.37969834    -18.74140442    0.55516515  -25.32769899
    8   -1.92629475   -5.97746430   -5.07263415     -9.99711787   -1.56895652  -12.90689126     10.01862222   -2.26551432   -1.73699630
    1   -2.52285493   -5.27830943   -5.58039597      5.56668591  -19.01997070    3.38133648     13.45288333  -24.20202650   -4.97022489
    1   -1.97610654   -6.76751269   -5.69450497      8.16876566    6.01897791    6.02120463      9.61361127    1.99033798   11.00018550
    8   -6.03344126   -2.97582875   -3.64864548    -24.76865622  -31.34977189    0.09941959     -4.49104739   -2.36259447    8.60751236
    1   -6.55161298   -3.21848324   -4.47629108      4.25756824    8.02528916   -3.66193703    -39.43425042  -16.33200195   -9.95065206
    1   -6.48086096   -3.65928178   -3.04040573     10.55714174    6.84262257   -2.12215811      9.70124023  -18.54386135    0.60313965
    8    6.52082839    7.17537063   -0.56766374      1.44783268  -10.16296721   15.84528520     -3.20932171   -6.75773870   -6.20523326
    1    7.19051320    6.48212766   -0.22262020     -6.12269441   10.31031789   -6.30557072    -12.62448211    5.70044885   17.83784198
    1    5.90339866   -7.19707599    0.20258542      9.37421592   -0.07200929   -9.06890721     13.83716426   14.75051798   -9.49669679
    8    2.08674762   -5.83713754    5.38727585      0.49046497  -40.69442247    1.63595360     -4.71670986    1.14809656    5.23158404
    1    2.06653173   -4.94454684    5.24290368      1.98034919   42.77699947   -2.99930143     -2.50456669    4.71249707   -7.81010760
    1    1.16839660   -5.96368536    5.70486693     -1.32105078   -2.31171231    1.22044722    -12.43679832  -23.87149644  -17.67555399
    8   -5.72889870    3.00321660    2.84907486    -28.82958213  -20.62418519  -22.44460532     -3.62959891    5.73079848    3.00314067
    1   -5.13244071    3.67501367    3.13779994      5.22264679   29.50020323   18.80208551    -15.26235080    6.30600248   -9.95941907
    1   -6.67538165    3.38804374    2.97824076     21.83101190   -0.32870830    0.40006764     25.33118379   25.74791550   27.81317888
    8   -4.47518974    0.41961356   -0.03175886      7.16573774  -27.21439485  -34.30901100      3.16316874    3.41359862   -1.59717509
    1   -4.08423789    0.80381086    0.74142344    -10.34330494   19.96463375   23.11127645     14.72107276   11.64028571  -22.85792184
    1   -5.47054094    0.47285423    0.03963928     -0.37097636    7.11760267    7.43662277     -1.95729568  -11.30751348    8.79291681
    8   -4.35607148    3.67164164   -1.95030952    -12.23411313  -19.76126382   23.94548539     -2.09612530    0.21625656   -1.60305498
    1   -4.26920433    3.93839388   -2.86089606      6.49024773   11.03533958  -18.82538065     28.69229904    7.69838545    0.51482093
    1   -4.67592370    2.71872354   -2.08561953     13.15869571   14.01279783    1.70943352    -13.57433297   -9.05191081  -27.54047742
    8    1.32615722   -2.19925749    2.02515670    -13.80778065    2.72447484   19.69988787      4.22086466    5.31020358    0.98655083
    1    2.25592293   -2.20414943    2.33881330      9.07533841   -5.76733271    6.25665108      2.68099133   -2.19445213   18.31005249
    1    1.48523989   -2.41791340    1.11571726      2.25113799   -3.27939569  -23.09261481      1.45911950    2.94491666   -3.99849073
    8    4.27238613    5.24729333    2.06406252      8.41582361   46.18346331   37.02717907     -1.38615008   -4.64658304    2.85314431
    1    3.86743824    5.14961792    1.26140632    -19.92139137  -15.29047672  -37.15388095    -37.75878617  -31.19928364    8.33355683
    1    4.05792137    6.27047416    2.21822874     10.18005691  -25.38109965    1.14595821     28.92808702  -11.96139620  -22.62756097
    8    6.57825579    3.40318340    0.43743341    -22.77487192  -26.67532796    2.16944931      3.95533204   -1.94670798    3.71101693
    1   -7.07901753    3.99101347    0.36641860      4.97754310   17.08034416    4.97119514      2.93577659    9.04281175   11.78875218
    1    5.99524779    3.78340906    1.15140117     14.90856255    2.06750635   -5.23439506     18.82665275    7.67820765   15.78086566
    8    6.90136813    3.00824748   -5.93115848      4.79601716    4.27496435   18.03413998     -2.77057710    2.08588072   -0.32944627
    1   -7.21899506    3.61863277   -6.64062147      2.71764080    3.45906783   -4.55097419      1.87283523    3.98026688   12.59708455
    1    7.16139378    3.53650454   -5.08741418     -1.51450755   -8.41500104  -13.48175978     -6.03774111    2.04049362   10.35947009
    8   -5.46398562    6.63362530   -6.58142934      5.17773356   10.28477394    8.63963242      2.05231841   -0.18234893   -2.79451179
    1   -6.14714864   -7.14991172   -6.89698586     -1.42596959    6.27518614    0.78655556      0.62498473    7.05310997   -7.01141747
    1   -5.34893743    6.99595645   -5.62986199     -1.92269911   -2.74891209   -6.88065503     -9.91114615    6.05082632   -8.69061386
    8    5.84448165   -4.02810801    1.52115387    -20.14100842   10.03441764  -11.74465779      3.16399224    4.53837914   -0.62738543
    1    6.31407263   -3.54533323    0.76776773      2.57356402  -12.81062859   16.91186475     -4.96629165  -13.61646367    5.89822354
    1    6.57078847   -4.38618807    2.11824273     13.29801158    3.71605357   -7.64224537      8.01132586  -12.04819425  -14.25697920
    8    4.44194167   -7.03089866   -3.96970364    -16.74620808   20.71625963  -27.63381259      2.80524271   -7.79877654    2.13492000
    1    4.22051727    6.56034127   -3.65376498      2.42299474  -26.26461804   23.24540570     -1.89551669    6.17488591    9.91932994
    1    3.76446076   -7.08251598   -4.70201871      7.82482781   12.91888498    2.48892926     10.18207787    2.08596504   -5.48643015
    8    5.37891014   -0.20516978    1.91337218    -17.18187823   -7.94861558    8.72783341      3.46007963   -5.81303556    6.61315440
    1    6.23730428   -0.47470033    2.38631717     -3.03307842    4.53955291   -9.03569654     48.40360483   -4.02027950  -13.12598807
    1    5.65295564    0.17656703    1.06045550     13.88192475   -1.91101850    2.74062441     18.65735448   20.07825805  -29.84516237
    8   -1.90552367   -1.14502334   -6.28099024     26.58865642   -6.12005086   -7.71145068      9.04281477    4.40180720   -3.86551306
    1   -2.62888376   -1.76414231   -6.02242045     -6.14525354    2.10503593    2.45603946      0.51166078  -21.91881036   22.46032133
    1   -1.13514030   -1.79153832   -6.41836190    -15.84328669   10.29020963    0.82858169     -0.61682907    0.41772489  -24.14940188
    8   -3.86675693   -4.67084091   -6.12980818    -26.08215386   17.56374027   14.82019484      7.33919254    3.94483046    1.02495936
    1   -4.65518197   -5.05927686   -5.65009600     12.42982383   -2.85217725   -9.64438998     14.16366289    4.33616049    9.19358151
    1   -4.08045761   -3.69719284   -5.96583628      8.51202966   -5.92117969   -9.66458994     -2.91483188   -8.87494134    6.92644454
    8   -1.26204394    6.07184372   -6.38984765     30.45952070  -10.10179364  -13.59896613      2.32284257    1.20850738    2.87442000
    1   -0.85294490    5.65530481   -5.62027235     -7.47898813    2.92672512   14.34830162    -13.13401321   10.54480794   18.45704333
    1   -0.46298406    5.87176500   -7.00961942    -16.83423171    7.70143412    4.39276033    -22.36905718  -12.42871340  -17.72569704
    8    4.66225557   -4.32979086   -2.09727595    -29.99217094  -16.31290685  -22.14332143     -4.75910882    0.80490950   -6.83372966