 BEGIN_INFO
   #
   # This is a XCRYSDEN-Structure-File
   # aimed for Visualization of Fermi Surface
   #
   # Case: Tight-binding calculation
   #
   # Launch as: xcrysden --xsf HICOLM.XSF
   #
 END_INFO
 # estrutura final
CRYSTAL
PRIMVEC
      14.83903044       0.00000000       0.00000000
       0.00000000      14.83903044       0.00000000
       0.00000000       0.00000000      14.83903044
PRIMCOORD
  300    1
    8   -2.61003407   -3.82721989   -1.91464396    -11.11526200    8.77282200    5.71974780     -3.57449288   -2.95018279    2.16046620
    1   -2.61330654   -2.88795648   -2.18973031      6.77393605  -15.35263153    1.53858936     -0.21716714   13.96103498   10.24366472
    1   -1.78018790   -4.17732044   -2.25005947      7.67773941    7.99510659   -6.38025629     30.83335848   -9.44729322   11.86440063
    8    4.38751401    1.60168647    2.11197927     -9.48844745  -32.12628878   55.15051108      2.86809971   -7.44479003    0.19303668
    1    5.20013308    1.10445289    2.40073828    -17.13048691   16.38648735  -22.11146555    -18.83939148    7.98962220   -9.23789982
    1    4.56525912    1.92979312    1.25647235     21.37584587   13.21934862  -36.00062999    -11.56639083  -22.13558894  -40.82897659
    8   -6.54367770    4.57771565   -6.94294806     48.99063448   -2.15288993   34.29747497      0.10829892   -1.62529210    5.79027297
    1   -5.82236584    4.69269385    7.23665982    -37.33362675   -2.33049751   -4.61899740    -38.88001572    9.88176091  -49.48160996
    1   -7.39845222    4.53046403   -7.37823388     -4.94328663    4.59720872  -27.69157257     13.30338572   -6.43466259   -7.94985463
    8    0.85635218    3.65595050   -5.24725115     19.83386784   65.95235642    5.56980793      0.83679656    0.17957531   -4.35050079
    1    0.52163536    4.08027296   -6.09697946      4.93025907  -20.84421707   22.05780746     26.23985495   13.90990045   11.02232632
    1    1.36709587    4.42718273   -4.83637098    -25.12201162  -47.02645717  -19.62759414      9.10281919   16.72300124   17.47777464
    8   -2.78212064   -7.26357637   -3.41288303      2.82672294   26.20378050   53.59147749      0.30089523    2.07611208    0.79589703
    1   -2.51655551   -6.31482185   -3.25319393     -5.06067387  -29.30425095  -22.28303030      4.77354725    7.49883382  -35.00462275
    1   -2.38689595    7.32373438   -4.24725159     11.21887480    9.31476424  -22.96191178    -28.50146307    6.67987579   -4.07303606
    8   -7.24421444   -2.78057489   -1.25918887    -27.62143064   11.54777402    8.18386488      3.72476246    5.05855191    2.95693035
    1    6.65163854   -3.09071504   -1.27364386     39.28308575   -6.30182310   -7.26839021     -8.03416716  -39.95028985   -2.71083022
    1   -6.70190067   -3.42449170   -1.74663448    -14.85160988   -6.80143718   -3.95973440     -5.13002872  -16.45626345  -36.08566142
    8    3.76550766    1.58086100   -6.25205302    -25.38923787  -23.50309767   -7.83787097     -9.56700318   -2.58511459    3.46091895
    1    4.27098542    1.29424359   -5.46197767     10.32831358   22.91534653  -13.37434815     12.54866293   -8.89850831   17.81099509
    1    4.21550950    2.30135993   -6.71612533     14.43242921   -5.94884247   23.95475479     -1.83542840   -7.57886271   26.69866275
    8    0.19516214    3.29180590    5.28677534     28.63413020    6.97394676   23.56267814      2.77847344    0.54940188   -2.50916742
    1   -0.56936008    3.13716428    4.74165623     -7.97422687  -12.41177106  -23.14296072     47.56108628  -38.08067168   -4.32329955
    1    0.91663351    2.70718706    4.95324249    -21.93197749    5.02917694   -1.22348041    -34.65924435  -28.52472503  -20.65316393
    8    6.49677695    1.76378594   -2.52076532      2.34635050  -31.87295303   -2.89907430     -7.65438317   -3.07151769   -0.20448473
    1    6.26799524    2.32514320   -3.28297292      6.66517784   17.08683192    6.37586349     -2.97893145   -3.59862769    3.30020205
    1    6.64334898    2.35133546   -1.77499473     -2.53947863   16.99891243    1.61868843      2.91003259   13.82382699   14.63814159
    8    5.81818777   -4.18011953    4.93265081      3.81605931   -7.26393603  -26.54486593      4.29037548    0.37295355   -0.08080914
    1    5.60047064   -5.13602352    5.05355071     -1.62928283   22.15305529   16.82417188      0.25725621   -2.38135633    5.44654839
    1    5.84824062   -3.75084020    5.80250902      0.85398650  -14.86865675   18.04418841    -33.80495096    2.10742407    8.69750617
    8    3.51180864   -5.61023873   -0.61057057     14.79866757    4.82147706   56.81464901     -5.62006146   -2.57200447    4.08921151
    1    3.70309057   -6.46858405   -0.15278855    -12.90512927   18.19926465  -14.80039550     -4.60024240   -1.93446001    2.69515646
    1    3.49924421   -4.97137426    0.18665912      1.36005635  -26.89676538  -39.72268472    -20.40731206    2.49307559  -33.16391640
    8   -3.44786875    1.60570127    0.49603075    -13.36364936    0.64594564    4.06718494      3.95820848   -1.07891314    8.97257494
    1   -3.92513787    1.78008939    1.33249573      6.19332691   -4.94285434   -4.26284285     -3.54061450    3.34634173  -14.27153084
    1   -4.13682324    1.16599399   -0.03062896      7.85601592    3.19756740   -0.30530429     -4.83573839  -33.11338067  -14.11164137
    8    0.34272056    2.54910358   -1.12946362    -20.58066198   39.41303376  -15.43522499      0.88638045    2.06272939   -3.57089403
    1   -0.43030895    3.16148944   -1.29002177     27.95159083  -23.32377161    3.81078076    -22.73407895   29.47464102  -38.30311260
    1    0.19212862    2.27843191   -0.21691339     -4.81431240   -7.41162738    7.92335579      4.78267753   -4.81152992   10.48430498
    8   -7.25402386    0.15814827   -5.98142677     36.60776335    8.35389025    1.90154342      5.46172971   -5.96216525    0.91828256
    1    6.84303146   -0.36034884   -5.70204755    -24.34049179   -5.90467640   -3.55214170    -31.19258020   39.34552971  -10.10711930
    1    7.29555613    0.70447783   -6.71603362    -17.28436783   -2.73101555   -1.69303900    -43.32001274    2.16463142   16.93767128
    8    5.77707245   -2.70087650    7.10800103     -5.96766204   25.78458562  -23.49521806      7.74423144    2.81243588    3.73707149
    1    5.58738272   -2.51155795   -6.79522823      3.19433825   -2.14695308   11.43726923    -41.90753260   34.01486898  -15.95736445
    1    5.41233263   -1.88714546    6.68297159     16.15190852  -20.17993755    4.00338951     -1.73215187   13.81608269   21.20934979
    8    0.24014989   -5.89129919    7.40941654     -2.49057626    6.89852384    5.42946969     -3.46202121    2.05127421   -1.72947776
    1   -0.29429420   -5.32071650    6.76802088     29.84318021  -60.68434042    9.98731172     10.09214901  -10.88158298    8.43282994
    1    0.50337264   -6.79367810    7.02960545    -28.49438426   54.62660322  -16.34857770      1.41673453    5.79251435  -22.18673768
    8   -4.51536312   -4.43564926    4.39593530    -29.02060378   -0.42609970  -15.86090149     -6.05211543    1.91707291    6.55794828
    1   -3.71552228   -4.56809716    4.94346087    -11.76239158  -13.98390353   -6.28686052     -9.50923020   -2.45478912  -24.35174348
    1   -4.89019036   -5.32465094    4.16452051     35.29378012   13.27113765   24.11778711      3.07417721   -9.80458738   21.48103563
    8    5.25716914   -1.82660286   -5.38360802     -8.26147017   -6.71249097    2.27383736     -4.96013915   -3.02908093   -4.59283831
    1    4.41855595   -2.37331478   -5.44592384     13.26907373   21.21196459   13.88391135     11.51031177   31.70175602   38.54853184
    1    5.09326754   -1.17296526   -4.67618973    -12.03359586   -6.47741220   -3.49418367     -9.48870406   -5.36939408   -0.12295154
    8    0.43889920   -2.45383654    7.18368669    -37.16736167   31.38596141   34.09886405     -3.44425085   -1.08200361   -0.32791380
    1    0.94356395   -1.78150487    6.72864243     11.40463076    7.40375817   -6.02143828     -6.85138612  -27.44023500    3.47319158
    1    0.73118381   -3.25232149    6.83425099     22.93140746  -38.82182946  -21.89353868      9.96700900   19.52573821  -31.68538330
    8    1.46282899    0.99981657   -4.24228735     11.37398549  -14.61408898   -2.49779357      0.58850927    2.48145983   10.47688442
    1    1.24338851    1.92526109   -4.44429375      7.01164021   -2.06511182  -10.23906638     18.39163447    1.62907224  -26.69802596
    1    2.22019018    0.76531995   -4.82672251    -19.38519455   18.92969812   10.23529014      1.92664631   45.92849068   -8.27495253
    8    2.80419409   -3.65890641   -2.39034356    -55.33306555   34.84162889  -33.95398876      3.99059511   -0.48464528    2.28550141
    1    1.79820855   -3.68818238   -2.65088187     63.43730064   -4.47440693   24.12228157     20.57707813  -65.39336649   -0.26698515
    1    2.97083988   -4.49363796   -1.96757761     -1.94681728  -20.27670814   14.82463021    -46.85988506    1.59023490  -20.82728590
    8   -0.96061452   -5.87690771    0.71974916     -2.22165407  -31.55702409  -16.20419585     -0.35247136    4.14307286    5.35246837
    1   -0.03115133   -6.00921581    0.90411218     10.58765699    0.69659204    4.83168998      2.80215192   10.02980782   -5.93331615
    1   -1.12882011   -5.00952885    1.06211215     -1.45504304   27.23836032   14.33447832     15.91728830   29.99545744   -0.29749647
    8   -6.31823439   -4.45762944    1.88904441     30.44963881    4.66359048   -4.26991831     -4.68843398   -2.10292278    7.86492363
    1   -5.54218969   -4.42859171    1.24471884    -24.19504371   -4.07920884   26.19852109      8.43574086   -5.80367476   38.45640051
    1   -5.89002527   -4.63865266    2.75234626     -3.80565765    6.21754980  -22.18934894     47.57821554   -9.93366333   -6.56551854
    8    4.53680634    0.32766823   -3.71135152     -1.13118638   -3.63387917   29.73603558      3.27696468    3.14112720   -2.01714136
    1    5.06654248    0.91882813   -3.14868580     13.35138290    6.20275167  -17.19400544    -15.95033091  -19.72311186   45.53190422
    1    4.06854293   -0.13417672   -2.98282398    -13.23252635   -5.19847827  -16.54367811     20.89203564   11.37434513    6.60080401
    8   -3.39178741    4.52226542   -6.24557709    -14.74895508    7.68459750  -11.67927015      0.48307694   -1.80751910    3.40873110
    1   -4.29562088    4.18492097   -6.12913003     10.29033038    4.57022261   -1.31257156     20.48492530    3.84155719   27.19108906
    1   -2.89262451    4.00909103   -5.59856479      5.65663131  -11.41333123   12.56957070    -60.79431771  -12.32606861   26.17020740
    8   -1.11026573   -2.20616608   -5.35554520      2.95570707  -12.11197885  -15.41781060     -2.92438526   -4.23494531   -0.72603924
    1   -0.63040047   -2.21738117   -6.19590371     14.08700639   11.17658520   -3.56027542     12.04357573   -2.94598054  -20.24255645
    1   -1.61424610   -3.01573951   -5.46599625    -11.74712163   -7.57111636   16.36725659      7.87399008   26.51909816  -29.23049851
    8   -0.03707694   -0.61743799   -1.97429816    -24.07966016  -10.54647499  -10.88921449      0.64781952    3.61812050   -1.65753013
    1   -0.07584601   -0.23043802   -2.88161068      3.55555286   -3.73334820   22.37900213     -5.25921680  -11.45971454  -13.60485585
    1   -0.97008650   -0.93682034   -1.83195557     25.41595321   17.34279332   -8.44047245      8.92661530  -17.12155667  -37.00135541
    8   -0.30478959   -0.44524520    3.92648041      3.01777260   26.24917225   49.82082345      5.77434755   -1.57777134   -3.50868040
    1   -0.12716432   -0.83448181    3.05973506    -36.44024254  -22.29915978    1.32009667    -30.62268564  -33.62792528  -29.75311996
    1   -1.14726759   -0.78670838    4.37030847     43.09859871   -1.49232393  -54.55389927     -8.59419172  -26.84193957  -39.05955871
    8   -4.21593001   -7.13268779    5.07542460     -2.64940764   65.05217343   -1.43641571      7.04000085    2.20201761    1.66280435
    1   -4.57357619   -6.91846398    5.98325208     13.47403648  -33.15223106  -17.50938295     11.40771418  -33.33916283    7.70083498
    1   -4.10922398    6.77055342    4.98972239    -12.79788208  -36.99489845   24.61563917     -0.72658501   -6.56213931   20.12617650
    8    2.90710019   -0.78862311   -1.86443996     36.20280046  -29.90887736   -3.33722112      4.71125951    2.69126811    0.38201526
    1    3.01938282   -1.70685005   -2.21200147     -3.68747686   12.43660522   11.04547206     -0.35512725    2.71804227  -11.09943149
    1    1.98725887   -0.64150530   -1.99434355    -35.79129313   10.00137160   -3.01749094      8.29530807   -5.92788957    5.26364194
    8    6.77395268    4.73549034    3.53550246     -4.36168631  -11.33142814   -8.44045442      1.61495125   -2.64552836   -5.83106587
    1    6.90398238    5.19100549    4.39863289    -21.70195496   11.17364252  -21.35007074     -0.42755353  -13.36616697   13.39673369
    1    6.00031380    5.15019891    3.06056609     23.34141305    1.34949671   29.50953164     14.37483675   20.46818572   26.54602527
    8    4.38934650   -6.41795074    4.57819368     35.04909987   -5.35272719  -26.05944426      8.26156187   -5.21316975    0.21145172
    1    4.05876979   -5.71017446    3.96771474    -14.80080932  -18.87087081   27.03516891     -0.48192764  -18.72049492  -27.34332811
    1    3.70154173   -6.60232014    5.21913332    -20.69221477   13.58882199   -0.45535498      7.74790975  -25.35950445   -1.05891429
    8   -0.69308137   -4.51051677    4.36673734      9.88056784  -21.14075560    7.19186040      1.19252681    5.22543293    2.44615753
    1   -0.80835237   -3.92683231    3.55944024     -2.45730495  -40.78196096    2.56342939    -15.92719753  -22.53468392   14.09571013
    1   -0.93944311   -5.46600058    4.13030733      4.71468783   48.62708333   -8.67476154    -13.06899408   16.55469272   -6.55027558
    8    6.70120470    1.80613531    6.10229144     46.75446214  -18.56219234    9.34833902      7.31328269    1.13143628    1.57199795
    1    6.02621408    2.45425235    6.18239503    -29.03608084    9.28219526   -3.68298431    -23.21255468   14.20531971    1.47541844
    1    6.28141103    0.95667950    5.86709928     -8.82571261   12.69094757   -4.83759303    -16.09117968  -14.09172340   -3.79954788
    8    6.39160971   -0.64632911    4.88755382    -58.22649658    3.74053321   67.20784342     -7.19974876   -2.00839589   -1.88843173
    1    7.28989189   -0.98445626    4.98092335     11.38757892    8.57797845  -45.52148990      7.51611076    3.00459771  -21.68814515
    1    6.17319500   -0.25048829    4.01729351     48.13488618  -17.93914303  -10.88496871     31.99596712    0.67874476  -20.39073603
    8   -1.58657469   -7.30254996    4.14302665      4.93300853   16.86727318   15.29835094      3.62726236    1.76144343   -1.21850620
    1   -2.49666318   -7.21904730    4.50367626      5.52273301   -2.55824449   -7.83193621      4.84489736    2.25525504   -3.47273149
    1   -1.67543431    6.96515732    3.37872267     -8.55469941   -8.36481426   -9.39641258    -31.58294349   -3.43159615   -6.48231272
    8   -0.47113149    4.62581250   -7.30418829    -28.17669246  -16.76867737  -15.26280989      4.21271797    0.05592906    0.33766058
    1   -0.38058760    4.08170871    6.70147856      7.29517623   12.87982251   17.52072621     20.08676280   13.44003045   39.02525122
    1   -1.39355548    4.42058308   -7.02274760     18.29116098    7.05255187   -6.98850696     27.30256638   24.48278182    1.05002176
    8   -2.00631914    3.00272956   -4.58616159      0.84197195   63.96656852   -3.78965481     -6.15597230   -4.66372993   -5.37863927
    1   -1.06516895    3.27985338   -4.58067296     -8.32261601  -23.22032557    0.82426407     26.42457398  -23.17393202   -9.21693324
    1   -2.02286420    2.07438162   -4.51849579     12.50727168  -45.77188891    4.20323720     -6.82254209   16.43245459   -2.59416762
    8   -0.82080964    1.71578553    1.11912354     36.96837658   12.99582783   16.90872994      3.30302904    4.44588165   -3.86738400
    1   -1.70913899    1.50642827    0.83000635    -18.03209035  -19.74850317   -1.80042911     -5.41225573  -19.09184327  -16.28155647
    1   -0.41787756    0.89093117    1.45255556    -21.00872466    3.70006817   -8.33200471    -48.43218426   -4.74485097  -29.28104960
    8    5.64260289    5.74507752   -2.33141957    -24.12245150  -18.07900574  -26.47808890     -7.06618992   -2.38626166    5.21675671
    1    5.75183593    5.65287747   -1.36693760     16.97975665   14.88554501    1.14046398     -5.59228461   30.05836476   -6.31947390
    1    5.93966310    6.63417059   -2.56734623      1.38280335    6.01129776   15.52539989      6.27424140   18.09493818    1.34315379
    8   -4.81918964    1.63356388    2.94562335    -36.27257350   31.56781274  -41.02729469      6.90584837   -0.45903911   -0.29321083
    1   -4.64111482    1.98734042    3.79917065     11.31360463   -3.22669394   34.03635778     11.34419037   23.23585540    4.49563976
    1   -5.47026991    2.32369848    2.61743469     23.71711593  -28.69182883    3.56449428     -1.79829466   10.95220340    6.58772672
    8   -4.11843850    4.96960881    4.94253610    -38.94981318   -7.29326850    9.44422717     -4.63342603    3.47649533   -2.86427148
    1   -4.59060462    4.14458111    5.19187668     11.78035180    9.84257511    3.14497591     11.63129220    7.49306528  -14.17576150
    1   -3.35465529    4.65214516    4.50183582     30.55457028  -15.35025904  -12.10130914    -11.03919789  -30.13432016   -3.93293520
    8    3.15861224   -1.22426491    1.15642215    -16.76086920  -28.72897455   31.00221831      2.59532150    4.60168869    5.66993357
    1    3.21368681   -1.05338556    0.23143756      8.22558945   15.67267857  -27.42819145     38.22431180   12.90169227   41.86543676
    1    3.51519392   -0.44808625    1.58938017      7.56028597   11.73622338   -6.26839291    -12.04796334  -15.82431921  -27.64312859
    8    2.91276949    2.79325593   -2.19264243     12.51901099   30.49156070    9.89082460      2.76554329    3.38706327   -0.00758167
    1    2.07992939    2.86310857   -1.67756389     -1.60200073  -20.69491659   -9.89023004     -9.33585126  -10.14962000  -19.52209931
    1    2.86570568    1.95431998   -2.65222287    -15.29986525   -9.73241011    0.84779347    -31.44211847   -0.15108018  -19.00788979
    8    6.01448704    3.78272644   -4.28124030     -5.83416894    9.64012251   -6.09936181     -0.66341439    0.96137954    1.33734640
    1    6.83820235    4.27380627   -4.35019582     15.85514715  -11.20769125   -6.21589184    -10.64382068   29.68209602   -4.80231105
    1    5.57815720    4.34435789   -3.64106494    -17.26403112    2.45978860   11.98104172     18.87214231    5.35834675   -0.35982589
    8   -1.61314067    5.91782389    1.77842255      1.46707356    2.03652018   -6.91633101      8.46964888   -1.37648636    8.29421897
    1   -1.55188704    6.77201309    1.36148507      0.77780699   21.41914471    6.37707685    -15.76269927  -11.97519718  -33.35455764
    1   -1.64597241    5.38233424    0.98348257     -2.68909256  -19.92597435   -0.84390046     -3.17585168   33.71367497   -5.20752504
    8   -5.00405923    1.07653773   -2.63873716    -45.36016987   11.91764150   -5.15434370      0.83878111    2.68322610   -1.94143858
    1   -5.11931314    0.35637997   -3.28171350     12.80081432   -7.83060203    3.49362973    -23.79148548   13.86004911    4.14283659
    1   -5.94252796    1.39514811   -2.57487046     33.87769120   -3.97313306    5.59906267     -5.58138877  -19.81637211  -22.55061389
    8    3.14824016   -3.08472339    6.16666012      0.49808304  -45.59687219   -4.88733678      3.14708545   -1.79891511   -0.54312365
    1    2.85478422   -2.17577234    6.22175823     17.91110625   27.06648071   -2.04187671     16.47162593   18.90736318    8.20790076
    1    4.06376478   -3.11055263    5.81715363    -14.41869851   23.05343823    6.35410898    -15.77478582   18.25804042   15.42539628
    8    2.96521922    6.69089404    0.56286854     -2.95782678    7.81115038   12.00084061      0.11062666   -2.34782561    4.04698319
    1    2.11335683    6.98497932    1.01333808     29.82575599  -10.31390609  -25.75099869    -27.99439908  -24.45345388  -17.47408152
    1    2.73695115    6.32841374   -0.31077164    -16.64068755    2.15961445    4.80068611    -38.05637814   22.89109058   19.05722385
    8    0.28122434   -3.80364424   -3.05091584    -11.03980793   31.79984505   29.57381252     -2.69039741    0.49411942    0.55442832
    1    0.45097576   -4.61044594   -3.50433479      3.30051142  -20.48948929  -30.75201824     19.19656982   14.91223599    9.83772691
    1    0.02256691   -3.16072158   -3.73042392     -2.13307054   -9.35195383   -5.41994214     11.27482215   -5.81774087    2.57571442
    8   -2.41270707   -3.56475301    6.05823688    -13.37941015  -27.38515893   19.33605048      7.84186688    0.19261928   -3.24712431
    1   -1.69799194   -3.81211808    5.43159386      1.37868364   17.35850587   -0.34941969    -18.39662628  -11.18639396    7.60043276
    1   -2.45613683   -2.60722483    6.11586265     13.70004999   12.81669569  -14.20068984      7.93836346   12.97067690   -0.08981206
    8    2.43201381   -0.51350845    6.82362620    -11.29277184  -19.11668668  -24.33266929     -0.50324202    3.65730043   -0.05444441
    1    2.73664563   -0.07301142   -7.22988642      5.91035988   22.90418984    9.16145851    -12.97477733   35.90694667  -29.61644688
    1    2.19575654    0.20175215    6.19512311      8.12951138    1.09109451    9.76785387     16.57251190   13.51594123   27.45136661
    8   -6.34381312   -6.31493990   -1.84786870      4.20442580    1.07265649  -20.45003295      5.06501268   -4.15408497    0.68007771
    1   -7.27841338   -6.32388364   -2.09567110     -5.28670944    0.14047075    4.82630698     17.03782757  -27.29915960   21.71595640
    1   -6.30728304   -6.78613142   -1.02103534     -1.99987866   -5.28088679   16.17950889    -14.31334110  -21.99420753  -29.05291908
    8    3.84754968   -4.08324240    1.68197502    -63.61256232  -28.34748914  -57.10036520      2.28642279    2.75919965   -0.88858259
    1    3.38474938   -3.20876714    1.59438322     39.17471607   -8.43818810   23.68857287    -10.34339349   54.04434638   27.95186748
    1    4.57777906   -4.04002016    2.25810015     27.19615601   41.39586052   25.95944844    -14.59403998   -5.22704167   -4.36773879
    8   -2.21153102   -4.87484107   -4.78803085     -7.78518498   51.19136773   46.54695412      1.08507505   -2.93790190    3.40159414
    1   -3.07360292   -4.88683529   -5.22084219     -2.40006759   -5.04534092  -16.84760885     -1.07408853  -43.75788186  -13.28938517
    1   -1.71868258   -5.54747922   -5.17566362     14.30265048  -40.80076092  -35.63881712    -23.70882934  -30.30554239  -37.70633958
    8   -5.26264806   -4.10914718   -2.98181375    -20.72278688   18.40528637  -14.65960090     -5.55524987    1.61900364   -4.00532291
    1   -5.49164849   -4.99592147   -2.68912427     -0.26868570  -12.19903128    8.44623500    -20.43668348    5.43796836  -10.95467810
    1   -4.39475775   -3.95828622   -2.61871803     18.77664484   -2.83794440   10.14661826    -14.35649391  -16.00211465   -4.91011713
    8    6.82234187    5.69990271    0.03443662     12.59522760   -8.92029016  -16.25656716     -8.38608809   -0.58993529   -8.03277491
    1   -7.05707932    5.94650441    0.08048074    -32.25495148    4.87414349   18.55783738    -16.91497956   26.70831371    9.09378700
    1    6.34829031    6.12612306    0.77415530     18.32072405    5.19229444    8.51915475     10.26190400   41.08011831   -3.62997084
    8    0.82324737    6.89718460    5.46089364     71.52930814   11.80035373   27.95495174      4.56286505   -0.73326540    3.14405160
    1    0.58318926    6.07873467    5.90887963    -25.38751127   -1.65566302  -12.84802225    -33.55214847  -14.50208773   -7.12467500
    1    0.13782090    7.19282142    4.90151526    -50.34354873  -12.37265974  -11.83749659     -1.94569487  -24.62305683  -17.17830855
    8   -5.69885248    4.20245712    2.50010354     62.04224033   -5.07602236   -4.11867573      2.56038705    1.68656934  -13.54310664
    1   -5.14193191    4.41832097    3.29467964    -25.53572334    1.33558996  -22.35807358    -49.79518264   -6.94570362    4.88988974
    1   -6.59284839    4.29726439    2.79796586    -36.32987731   11.56130076   21.27799472      0.76375235   32.02118371   19.04145517
    8   -5.20512477   -0.96901702    2.09150898    -36.14503998  -40.06772409   -8.74390480      2.37734130   -3.63980836   -2.61991668
    1   -5.34943819   -0.03203392    2.22357889     -2.70621384   18.37540735    2.38463716    -15.89751481    5.60445943    7.92017512
    1   -6.07030121   -1.30106290    1.70815697     34.22328215   22.25507518   15.23098049     18.61448121   12.42325947    2.07997293
    8   -4.69765845    3.94196576   -1.80753686     11.61210037   12.89711831   41.29538489     -8.91401094    3.72315963   -0.56459955
    1   -5.31724084    4.33353701   -2.39611143    -19.39993896    6.81855490  -26.06810785      3.91537123  -23.12604958  -40.65231435
    1   -4.27913545    3.28166406   -2.33550684      6.08253802  -21.90335406  -18.72094039    -46.18228084   -0.03898111  -29.73224011
    8    0.25767863   -1.27665435    1.06544777    -16.38390649   12.72518315  -21.21900748     -0.44963450   -5.71889132    2.70595774
    1    1.12969205   -1.64515751    1.20697363     17.64321856    1.58565900   -3.59575158    -14.65882164  -17.83808142  -19.30483903
    1    0.27939447   -0.96390992    0.12310852      2.52729928   -8.88008711   21.04636744     13.46673299  -23.59340636   -3.73307560
    8    5.16582681    6.57345790    2.10094622     68.03627025  -43.48085335  -10.81895864      0.56560477   -0.02332926    4.98223980
    1    4.36724156    6.72286943    1.59221233    -31.79888744   21.37549452   13.40939271      1.60499983   10.02042878   44.37506292
    1    5.19488128    7.08269050    2.90912860    -34.69015143   21.62973056   -0.71052294    -47.04695825   24.61933844    1.55924251
    8   -6.30618933    2.82297213    0.09945568    -13.10774080   -4.48652208   18.79139638     -3.86437824   -8.90320928   -0.15145232
    1   -6.25009239    3.44447029    0.84205275     -0.31281081   -3.88480352   -1.97543886     34.83726696  -16.23396768   17.48335247
    1   -5.71777062    3.20436753   -0.54405153     14.13380306    7.40613263  -16.47223606    -11.20825051    7.43871422   -5.93679066
    8    5.64608524    4.54779070   -7.31763089    -32.97652314   18.48262355  -12.08149077     -0.59240828   -0.36240280   -3.73803220
    1    5.58320667    4.34195270   -6.36367039     -8.68324191   12.46112326  -10.28302372    -28.24143735   24.41333441  -20.56091767
    1    4.93180641    5.23067099    7.30969256     35.67507137  -35.30009003   23.51300341    -16.00202439    5.19395969   19.78489004
    8   -4.93985785   -7.15839766   -6.97581066     25.82000264  -52.19897500  -34.04365898     -0.30143575   -0.29859442   -8.12380275
    1   -5.28696209   -6.42903676   -6.56698377    -22.39554169   56.95960788   26.95277262    -17.08665126  -18.54543872    8.30659492
    1   -5.27424085    6.95648720   -6.45080471     -6.10359100   -8.30251798    5.60715164     -1.01245491    7.93378819    6.23171573
    8    6.31104938   -2.97815510    2.71308870      7.46496633    4.99566131   12.34740352     -0.21522044    0.34066532   -0.53704126
    1    7.13134471   -3.37025414    2.29892564    -20.22833454   -6.78096274   28.06620400     -7.54797437   25.72788787   20.01033170
    1    6.24789082   -3.30265186    3.68466993     15.74215280   -0.79258404  -50.47435481     11.01274885   -8.26776108  -34.07489580
    8    1.40137325   -5.52293635   -4.94584670     19.19206828   54.65590164   22.86041960     -2.16633513    4.71968249    4.49940076
    1    1.50928885   -6.33384987   -4.47028938     -3.72259626  -36.74474567    2.75083425    -35.86935538  -29.21758477  -27.69575347
    1    0.88017915   -5.73106156   -5.70492676    -15.29897753  -17.87060914  -28.81178611      4.41426370  -18.16282504  -12.35794867
    8    6.35393037   -0.31944914    2.26113635     -0.27142913   40.48099740    8.27841985      2.60549327    1.76786575   -0.58025753
    1    6.28285489   -1.27862389    2.46335167     -0.14129616   -4.66294757  -34.13536897      5.67496633   12.69203753  -21.05542937
    1    6.40844173   -0.16160212    1.27046580      0.74826184  -34.61173192   18.43311171     -4.99200512   -3.36084954   15.82737258
    8   -2.40731036    0.03765718   -4.67196640     15.84368880  -27.08423648  -35.38144395      0.63211473   -5.46757814    2.28558453
    1   -2.60405327   -0.58670402   -3.95327705     -8.76746063   17.63988988   12.55487447     27.60415924   -8.43080658  -12.75698611
    1   -1.89937163   -0.58054306   -5.26082745     -7.17296557   22.05102255   12.91712727     -0.01007710    6.27267927   -2.97475012
    8   -3.97671500   -4.44345263   -6.89417576    -28.80164725   40.31809000  -12.49603878     -3.63950349    4.37402629   -0.63629618
    1   -4.75021080   -3.81707099   -7.16164304     36.61411355  -39.27121176   18.09614421     23.40784403    7.45182479   -4.25557986
    1   -3.24578333   -4.14430208    7.34715327    -14.14402897   -7.47512639    3.79069739     -5.50506323   27.14157697  -14.33733985
    8   -2.32703164    7.36974937   -5.99223272     55.94431715   -3.98033964   23.64189746      3.68295286    0.70956399   -6.26446518
    1   -2.11182338    6.44121761   -6.24474780    -31.35769431   19.66983498   -8.90125052      3.83535990   11.97901008    3.23119757
    1   -3.21458754   -7.25098747   -6.25895014    -21.62018603  -19.97350176  -25.17169143    -18.40129174   -0.31712439   -8.60597402
    8    5.57265390   -6.12732685   -2.59189933     24.92338957  -26.12329736   19.86160608     -7.31760756    3.43929573   -1.93357960