 BEGIN_INFO
   #
   # This is a XCRYSDEN-Structure-File
   # aimed for Visualization of Fermi Surface
   #
   # Case: Tight-binding calculation
   #
   # Launch as: xcrysden --xsf HICOLM.XSF
   #
 END_INFO
 # estrutura final
CRYSTAL
PRIMVEC
      14.79625339       0.00000000       0.00000000
       0.00000000      14.79625339       0.00000000
       0.00000000       0.00000000      14.79625339
PRIMCOORD
  300    1
    8   -3.29567850   -3.84821849   -1.30023639    -12.48477662  -11.61222789    8.31486010      3.40319377   -2.23655025  -10.86377375
    1   -2.91466975   -3.01133051   -1.55779677      9.20935426    9.66598646   -6.31325804     -3.25445767    3.43188664   -2.97060490
    1   -3.06123968   -4.41874726   -2.05704109      4.56725309   -1.39400834    2.21755720      8.87045872  -35.67175716   15.22648831
    8    3.78598580    1.01118219    2.26001415     -8.53208986  -19.85694618   11.18008573      5.80140206    4.79436224   -1.44399900
    1    4.21665697    0.50264620    3.00528804      3.72586517   30.48641551  -25.17225208    -20.37026887  -20.99894994   14.89821275
    1    4.33868499    1.77954643    2.03980206      7.36333277   -8.01985673   14.61215364    -26.54827427    0.21522199  -11.69247667
    8   -7.00178061    4.24697456    6.06993230     -0.29211792   -4.69016700    9.87991668     -2.27714655    1.94201344   -3.11254949
    1   -6.71707072    5.18637631    6.07783040     -6.35888629   -3.76316260   -8.41780058     13.45359925   18.09069871   10.06032253
    1    7.32627583    4.15345440    5.23119621      6.11981581    5.30439244    1.71957611     27.55910636   -1.08157460  -12.61813363
    8    1.03042426    4.18912380   -4.36905326     36.78842827    9.66855973   32.43260225      1.30349075   -1.91752456    3.86152019
    1    0.56009475    4.43481580   -5.13828825    -21.48823429    7.20594446  -34.09862360     -3.29061065   -0.29094497   17.02578585
    1    1.73281737    4.88095185   -4.30002242    -12.80060852  -12.41303875    1.66201297    -35.69588921   -4.97318501   11.44212347
    8   -2.47498956   -5.56988589   -3.23907166     -4.92593401  -16.56843987   34.52547365      1.06987002   -1.05410835   -7.18568092
    1   -2.20478877   -5.17115623   -4.08355450     17.91045716   -7.86340713   -1.62241804    -13.91520380   13.16800083   -3.96069963
    1   -1.67402297   -6.06710560   -2.87084562    -25.32224131   21.82303649  -28.32797976    -11.14199043    8.00322209  -11.83793902
    8    6.61188603   -1.88498069   -1.44502504      9.40929562   -0.96237665   18.29740261      3.18418136    2.16442419    1.79027124
    1    6.28499238   -1.69497931   -2.33602474     16.56906658  -10.60741974   -1.13459090     29.55259144    3.69553224   13.60358389
    1   -7.30432139   -2.35098992   -1.51320184    -28.07360480   13.71355651  -19.07771287     -4.46284642   41.88552826    0.27776277
    8    2.94326488    1.35635024   -6.33601480    -45.71267634  -20.39199121  -59.98059275      2.70413330    4.20984713   -3.69557552
    1    3.53142833    1.69027875   -5.67642898     41.04490410    9.22259635   -9.35802095    -15.52366936   -2.80073775   -2.22882597
    1    3.35669915    1.27960933   -7.26951602      5.72135260   17.61603385   72.71381486    -37.27955807   -9.20457363    5.82273284
    8    0.43865064    3.30758194    5.65792046      1.44472591   -8.72579881   30.53421280     -5.21590780   -2.22421326    2.97781549
    1   -0.40717416    2.87437017    5.42504759     14.82721301   11.42005753  -16.25401392     12.30575036  -31.42685179   20.46459876
    1    0.82415550    3.64509775    4.83762899    -13.34811141   -2.70436080   -8.50774759     38.72816251  -12.41564686  -13.81202621
    8    6.33754119    2.12196427   -2.39959917    -11.14501540  -47.64580275  -27.42362409      1.09919526    0.01234982    0.84072792
    1    6.29330994    2.91464480   -2.96195737      5.58219851   22.59789563    8.55307491     -4.68598234    5.06794599   -5.21568528
    1    6.59582048    2.41634072   -1.54599026      8.35507889   24.34578259   25.41131867     10.78841392    9.64293939  -14.92055692
    8    6.55672980   -5.55268783    6.08047788     34.86976212   24.40445688   -6.20406393     -3.23357706   -5.18107350    6.34878347
    1    5.74831785   -5.71817174    6.62132322     22.47779762   22.29365196    3.46067027     -4.34507159  -19.99364844  -18.50283988
    1    7.06669473   -4.71583691    6.42899891    -60.90761515  -52.69611415    2.41698408     21.66788286  -13.53703481  -16.17084128
    8    3.69264705   -5.28666391   -1.01156175     -1.69256307   -9.12217803  -17.28775554     -4.36698461    3.18932828    0.64816097
    1    3.69702816   -6.24347999   -0.82037851      5.47353462    7.93618303   -5.41197858     -3.46187637    0.62921602  -30.32703850
    1    3.59145084   -4.90535405   -0.13793560      2.18281534    9.90894849   16.88707043    -19.87046807   34.97806191   -8.19136800
    8   -3.60589492    2.23347975    0.59742030    -33.80034197   33.44399230   16.50572831      0.67141958   -1.66025706    4.92089497
    1   -3.94311053    3.06345997    0.96660517     31.67319798    7.51450618   -2.88701650      5.67703320   13.22072817   11.67016945
    1   -4.41633924    1.77268921    0.76078041     -0.37154097  -40.26419109   -8.53489579      3.48667539    2.40695848  -12.30073513
    8    0.60958854    4.06362398   -0.45038671     -7.98784172   10.86066454   -7.72192025      3.08635630    0.93083003    1.44211538
    1    0.01384064    3.99806973   -1.24796142     12.86760934  -16.55112328   35.90889495      9.26577906  -16.52363055   37.15528837
    1    0.56733236    3.19692678    0.04284361    -10.15386479    5.74356564  -27.64639078     -1.15683208  -12.29875549   -9.85124322
    8   -7.03710630    0.00015088   -5.36667991    -22.16572695   17.99825978  -46.93770285      8.07587686   -0.30174714   -4.96469627
    1   -6.85794063    0.40752541   -4.53371528     22.31253342   -5.94188642   43.37733260      0.34722852    8.75722590    4.11227543
    1   -7.19590175    0.83139028   -5.85582276     -2.71270908  -15.63666713  -13.91051524      6.76681652   14.22775147    1.37280891
    8    5.08544269   -1.40230049    7.37070528    -17.52191542   43.90613535  -20.42635269     -2.56679672    1.11629820   -0.61516535
    1    4.68644080   -1.28125420   -6.56182604     -6.25358825  -20.65171806   22.66659908    -10.62435437    5.56584196   -9.18079380
    1    4.87801301   -0.48511303    7.00929573     25.06683083  -34.87113218   -1.01098335    -25.77911264    1.87119724  -18.08863601
    8    1.26969338   -6.54489703   -5.29087760      8.52682793   72.93122067  -14.21258118      4.68251815   -3.93853604   -2.13794757
    1    0.40376056   -6.87058869   -5.61342670      9.05234191  -33.35236124   11.41185588     14.60100229  -15.11236353   26.05790612
    1    1.76168148   -7.22050497   -4.84958037    -12.96616710  -37.56288947    5.51748871     -1.88895455    3.93046624   -0.42239475
    8   -4.65174252   -6.10195855    5.50953750    -58.56950697  -23.02207491  -50.67427456      1.63280388    2.58158585    8.73072345
    1   -4.63565843   -6.15545493    6.46406077     29.09017537   13.14694713   18.27736909      3.06424311   -8.47519466   -8.53053333
    1   -3.87235411   -5.66778915    5.17996563     24.14618825   13.99761677   24.20006507     14.17835784    9.61088653  -14.54652361
    8    3.49932595   -1.23003999   -5.23615670     46.52324915   -9.88026517    8.80883815      1.28699323    4.71841097    2.84692882
    1    2.57429746   -1.28037089   -5.37249644    -39.81401179    5.36548044   -6.72476638     -9.47471828    7.92575259   -7.86773601
    1    3.64343728   -0.32627895   -4.93158849     -6.88098919    5.17686075    3.90105330      4.38733671    3.41655611   14.27277171
    8    0.22324745   -3.66566548    5.72021538    -95.18458986   -3.74126317   14.77827387      0.89976940    2.36388069   -1.36117415
    1    0.97209953   -3.16106037    5.99274353     57.48493206   -2.23069201  -17.25403040     16.74964753   -8.97691366  -21.80710772
    1    0.44890058   -4.37476089    5.10841545     42.96623268    3.19368185    0.57139791     28.02480129    0.83598190    5.86234918
    8    0.94899969    1.51048327   -4.24813688     27.03120585    2.93481906  -24.56221906     -4.12890586    5.42360446    0.01400453
    1    1.40120019    2.37339324   -4.31186131    -22.18981615    8.48857462   16.67592927     -7.20452100    1.13155394   -1.28473231
    1    1.44160742    1.07341324   -4.96799363    -14.14875550  -14.22818246    4.40956440     27.03732446   19.59574209   33.78535052
    8    2.02159229   -3.22607361   -1.89546861     36.55251753  -21.22245204   -2.76078277      2.23194210    2.70662362   -1.05227534
    1    1.31496459   -3.63784433   -2.34791634    -48.48802416    0.39398341  -16.38475878     18.58956509   12.15056666   -8.69756599
    1    2.68340744   -3.91289644   -2.10346792      7.28145760   17.49516448   21.38542057     -5.83356001   -5.23772312  -13.46378085
    8   -0.84468005   -6.67414616    0.49088689     -7.61644585    3.41992042   15.73892341      4.51289852    4.44230401    2.20724202
    1   -0.18935103   -7.09987802    1.02835896     21.84102064  -29.18401904   -4.75671821     -8.68566395   21.59507293    3.30660889
    1   -0.96687938   -5.90678775    1.08400324    -15.92228833   15.47462565  -16.23710835     -5.64772706   12.50395350   -0.74415940
    8   -5.79258508   -4.21828460    3.56190645      0.66795061  -28.21615453    4.76757745     -4.36158806   -0.79515108    2.94341172
    1   -5.30114285   -4.44889828    2.76348005      0.62442252   11.46461208  -19.47289886    -17.92817210    4.08924945    9.36711535
    1   -5.71260708   -5.06644962    4.02999491     -4.63478996    9.43284981   10.51469960      0.05874935   14.36390543   33.24271900
    8    4.02666348    1.16581456   -3.61206472    -13.61341370  -12.08589854   -7.44928353      0.81706070   -3.68316023   -1.24945126
    1    4.79871773    1.64962163   -3.28574666      1.85449007   -8.59196154   15.07388189    -16.78706786   21.05208358   25.10442915
    1    3.73671297    0.57588661   -2.86331911     12.42773995   16.45699802   -9.21160196      7.24758091   15.67239627   21.91543089
    8   -2.20260608    2.66396069   -6.71260915     12.31159587   13.48630360    6.79393398     -0.40877438   -2.83791002    0.54574258
    1   -2.88097456    2.50278336   -7.36041056    -16.45542507   -3.58281619  -16.80752299     15.15026067   13.39545735    4.31235871
    1   -2.46346668    2.08985530   -5.97635662      5.49613564   -3.73340580   -0.31262190     43.46595087    0.29488617   -0.57684220
    8   -0.99394937   -2.77171368   -6.83048595     -2.75733443   51.69914323    2.05084212      8.54360629    0.54518511   -6.95560454
    1   -0.58684107   -3.09316458    7.16651420      7.58369844  -11.70289112  -21.31143066     21.34196143    0.10683584   -1.78493843
    1   -1.12389036   -3.54997779   -6.32062327     -4.80471460  -38.31013180   16.90294695    -39.05159861    2.17886679   44.31225458
    8    0.62933818    0.04233349   -2.11147206    -83.50850521   31.02815804  -22.71135507     -2.05153372   -3.60094638    5.84445235
    1    0.79940166    0.69636556   -2.86193316      3.20902216  -24.34719904   18.20628574    -25.58675335  -18.66048164  -15.21717961
    1   -0.40946369    0.09530807   -2.06371980     75.07160079  -10.46869743   10.39927544     17.41482473   17.56531918   -9.04994796
    8   -0.30717034   -0.54140697    1.65729011    -43.10221290  -63.37899642    2.72807011     -2.49255614    1.57511362   -0.75073079
    1    0.10734939   -1.34096153    1.25881955     20.69881447   19.47927100   -0.30184685    -11.80989042  -22.61336513    4.28428424
    1   -1.17715716   -1.00977057    1.89059578     22.85655898   41.49386620    0.37045865      6.07312401  -16.92381878  -26.57064664
    8   -2.62640950    6.99659413    6.56487715     22.84259907  -11.44191510  -21.01722188      3.71458546    2.03257069   -3.46714866
    1   -3.31647471    7.24385311    7.21440961    -11.87721331  -14.26654275  -13.00405168     27.90317269   31.71775130    0.32024905
    1   -2.97017860    6.25105842    5.99847661    -10.31054405   19.98716963   28.78772727     17.75151649  -18.48843015   -5.52219533
    8    3.14530115   -0.61177664   -1.73261379    -15.53207054  -27.32622297   -6.28370716     -2.27192664   -0.83827529   -3.33124410
    1    3.15977529   -1.44952874   -2.24812453      3.74370942   16.48844861   12.77475228    -13.66032789   -5.66558601    9.05276251
    1    2.17106417   -0.56304153   -1.53423834     21.49954394    9.25132486   -7.82347499     14.82888010  -30.76346371  -25.05900735
    8    7.31618957    6.34023889    2.99669122     12.00564189  -28.60261664   -0.92246292     -2.60496522    1.04298654    0.06881120
    1    7.24129713    6.81017060    3.82964109     -1.05698333    6.48937189    5.92701074      4.64148606    7.19518170    3.73330569
    1    6.78849375    6.83592473    2.37976230     -9.16766901   19.37489754   -7.06892333      5.59938045    3.87582836   23.43418306
    8    4.23505955   -6.85379088   -7.33367380     41.85456597   11.14097334  -48.23116054     -0.85414907   -3.55328843    1.51319120
    1    3.97336369    7.24603317   -6.73313992    -25.12656003   25.30116624   23.18525921    -33.32376506   -4.17969046    6.06443987
    1    3.81339263   -5.96782117   -7.15436384    -14.93393520  -35.99750199   23.50964549      9.25795979   -7.45897826   33.88141091
    8    0.82891367   -5.83428174    3.95726102     40.44094911   11.67266354   21.91511939     -4.25011428   -3.83119435   -1.25519900
    1    0.36469038   -5.24498979    3.39852844    -22.29109945   18.19320846  -24.80099097     10.91937646   10.20943999   -8.49156013
    1    0.31592013   -6.62970132    3.92882846    -26.30190039  -20.56905958    3.07549672     -5.43370421    5.17085989    4.15464249
    8    5.40933713    1.09669425    6.63763076     -0.24672484   47.12705785   57.86621005      6.27422952    7.40667861    0.12428008
    1    6.00268288    1.67895696    7.24306684    -26.18040282  -39.71219662  -46.18334973      2.22741979  -29.97739963   11.54308623
    1    5.95617549    0.82331182    5.91462365     27.95553724    2.22904595  -11.59210365    -27.76101115  -13.69914983  -14.20723875
    8   -7.30142087    0.28552903    4.77418660    -57.54467856   77.48921422  -12.06587739     -0.44108690   -2.25218313    0.18600377
    1   -6.85034169   -0.48690377    4.90262126     31.61077301  -74.57052669    9.76329277    -49.05292527  -11.20862004  -30.99822097
    1    6.67697944    0.02052660    4.27675472     21.32234455   -8.74121475    6.55605633     31.54815301  -33.70042399  -24.73353459
    8   -1.06303644    7.05275424    4.13066434      5.33417925    0.73243411   15.64413257     -3.72517546    3.25285016    0.97039896
    1   -1.42762691    7.16034278    5.03679291     -0.70181404   -2.39314927  -11.42868295     21.16069514    4.06795598   27.64849565
    1   -1.80362127    6.70094043    3.62855735     -4.71953488   -2.40231608   -1.12754106      9.21166297   23.85082164  -41.49369215
    8   -0.33794750    4.59861606   -6.76501212    -29.92120930   -2.61489822   24.52404821     -3.07952568    6.07726626   -0.68380855
    1    0.20507494    4.24580084    7.33987440     11.52701739  -11.81215567  -23.14750290     22.00210355   10.21551088    1.42072251
    1   -1.12517961    3.98061567   -6.77227721     19.78733836    9.44106586    1.16146447      6.98680749   19.43253570   20.29314078
    8   -1.94578836    0.97337395   -4.68357484     -1.00067923  -11.60988756   -7.60442251     -4.18759572   -1.76421761    1.43982601
    1   -1.15077543    1.43993699   -4.43854856     16.73482065    9.17450937    7.44914056    -18.73468201  -22.46296882    6.92728019
    1   -1.57482736    0.20855840   -5.15161232    -10.07649095    0.91562696    4.18868811      1.72631153   -6.78325766   -4.10070749
    8    0.77834887    1.48610864    0.27084986     20.62635629   14.20918991  -23.00181808      0.69837878    8.55271477   -0.12453775
    1    1.19084899    1.03419571   -0.51839915    -23.73377797    3.09287956   29.52503222     -7.31569396   -0.15363844  -12.82463847
    1    0.38617183    0.78545595    0.81139539     -0.73291925  -13.96526906   -5.17649902     35.07346575    7.78487908   19.13011599
    8    5.57374154    7.01965512   -2.95073807    -19.58409432  -35.33007099   -7.56259929      3.67464519   -1.18238767   -6.74611625
    1    5.87426834    6.72937210   -2.06247007      8.42328271    4.39534382   -6.43144520      9.18537581  -10.95922466   -8.08458867
    1    5.49335204   -6.85161368   -2.86325877      1.53514576   35.03120553    3.80374809     -4.38955511    0.16313146  -10.90342109
    8   -5.47407981    1.35914269    3.20514282     14.10069085  -48.32037263   -3.58146086      2.51625920    6.81310792   -3.35729454
    1   -6.10126438    0.98516556    3.89492703      8.05161989   34.95645515  -16.41135081      1.56833481    3.03335911    3.76295542
    1   -5.62877683    2.29621824    3.12069436    -19.64996268   21.83708625   15.54787214    -10.01046903    3.28256586   12.70267528
    8   -3.26447488    4.59870849    4.69652561     44.97506033  -79.63187240  -12.42498992     -4.81931747   -5.25294461    5.02887352
    1   -3.53472681    3.71778899    5.04634183    -31.21078563   32.75877419   15.81084454    -51.40841990    3.40021822   19.67231799
    1   -2.48570248    4.19140775    4.23702792    -13.18389208   45.39141083    0.05335458      9.53191644   22.81105034   18.94431140
    8    3.65843698   -1.52264863    1.26648462      1.06662287    3.31516878    1.82129560      4.00281960   -0.94822470    6.80434910
    1    4.05789474   -1.63137316    0.39534860     -2.13344489    8.99080342   -3.47398255      9.66214325   35.98458339   10.53505798
    1    3.78280673   -0.56024173    1.47142377     -7.39349192  -17.68119617   -5.90271402      6.20687326    4.01993475   -8.31304408
    8    3.06276790    4.66755140   -1.02336739      5.09831209   33.91903276    0.75052567      4.76903705    2.52384384  -10.95854958
    1    3.47546861    3.80877491   -1.20507333    -28.50486431   -5.46849599   10.04047906    -14.58210041    2.04750619   -0.18266640
    1    2.12268665    4.53583781   -0.67122186     30.45021931  -25.07299663  -15.12983369      5.96134409  -37.64940531   17.25181805
    8    6.31452891    4.43243664   -3.59102111     14.33018016    6.48519035   -9.53098780     -8.01453340   -0.72986884   -0.66945623
    1    7.17707187    4.88055761   -3.70371686      8.70505999  -14.44285623   -1.64556993      2.08313587    1.43913968    6.31445296
    1    5.76068577    5.20467237   -3.66871592    -19.14944595    7.02436837    3.78574450     -3.57364043    2.31299708   18.63691493
    8   -0.75221930    5.05769714    1.78598255     15.27097227    6.65919206   31.47272175     -1.15939494   -0.53363792   -3.61643648
    1   -0.11084509    5.24141089    2.52232981    -16.19664264   -7.67541228  -16.15306840     11.85266164    2.64663284  -32.82497391
    1   -0.15867958    4.98884336    1.03383332     -2.28108375   -5.34648151  -14.40387350     31.87108106    0.91434430   23.47843518
    8   -6.14398483    0.95866497   -3.18475612    -14.02070578   13.54134397   57.57480605     -0.21221341   -2.88010989   -6.16405653
    1   -5.61155511    0.60711543   -2.41505572    -16.62465125    4.79755270  -21.33610141      7.18487724   -0.44258980   -3.54335484
    1   -7.00102621    1.28865344   -2.75078911     35.60538048  -12.08710265  -19.80530707      1.08792862   -2.29821852  -10.92377282
    8    2.44816164   -2.15763104    6.32620913      5.32242092   21.87564985   -1.93661655      3.54718027    2.20580719    1.72388022
    1    2.15859376   -1.21044569    6.10745081     30.24524651  -32.73861385   13.27622241    -29.06432928   -9.99251814    4.23565099
    1    3.42386667   -2.14350830    6.56433108    -36.84634731   16.77548177  -12.13653121      3.90546717  -29.00196308   -4.02112714
    8    3.99245007    7.10256299    0.10848241     86.65574692    9.51287707  -11.94354200     -0.49861373    3.32337196   -6.09499096
    1    3.30385852   -7.10600843    0.43777358    -45.37892234  -43.10780690    0.88183577      8.30250998   -3.34503023   50.45823772
    1    3.71395489    6.22629504   -0.25927546    -44.16156511   25.23201384   17.89227060     31.23384831   17.77052059   38.44511417
    8   -1.92824549   -2.08629874   -2.98402965    -62.97357395  -17.73222262  -30.67242391     -3.88122246    1.24508001    0.22847652
    1   -1.88466136   -1.46351500   -2.27033717     24.09775550   20.47972049   16.80930263      7.99784806   -8.08388533  -15.78438970
    1   -1.06900518   -2.39827587   -3.16394337     41.53314868   -0.81194491    8.13131731     10.24299968   -1.86381347   44.22320914
    8   -2.63871841   -3.77199065    5.29754477    -67.36255475   13.00595864   -6.44739237     -1.67464115   -2.44639537   -2.32176046
    1   -1.72335828   -3.90562169    5.36660878     47.69324012   16.95832798    0.59289437     -2.44356717  -35.71243451    2.06591631
    1   -2.81262633   -2.79288344    5.16285062     21.50316539  -26.22561864    0.94283557    -29.00477265    7.54908576    6.68978093
    8    1.48812666    0.38445833    6.09485965     -9.35042889   12.44388633   27.04963899     -3.07874587   -4.32117875    7.68656684
    1    1.22910592    1.23694369    6.50273256      8.53070335  -12.83031942   -1.62304202    -18.86505364   32.22286740  -34.68829825
    1    1.21898823    0.53905384    5.18330274      2.48298874   -1.25915112  -20.87621366      3.31360025   24.91716072   40.31533624
    8   -6.71558943   -5.81839484   -2.22392278     32.33680720  -30.06035535   15.97807176     -5.68055787   -3.92413377   -4.15249518
    1    7.22537054   -5.37906552   -2.22798698    -24.38990518   -3.91366506   -0.21689461     21.98796417   25.08066993    8.91007444
    1   -6.86825974   -6.74571541   -1.86027877    -11.86185262   40.66980895  -13.00672781     -8.63979417    3.80786790    5.44637350
    8    3.94983332   -4.26374430    1.61544770     18.29779467  -25.65064658   29.18038986      5.74689392    4.51797479    0.02649827
    1    4.01923855   -3.33165223    1.59533514    -12.59585027   37.63718182  -14.34120477    -20.69838273    7.16252444  -23.00455086
    1    4.51182228   -4.42065331    2.42236770    -11.16702257  -14.71273637  -22.58646168    -13.54764470   -6.60930523   -3.49633142
    8   -1.79454275   -5.10206349   -5.89595065      5.44114575   40.78526537   23.28718945      1.67572764    4.80572252   -5.38377004
    1   -2.53916802   -4.97458195   -6.49560355     -7.66028611  -10.68276203   -7.79772819     -4.11817701   -1.45661455    0.85547824
    1   -1.47238866   -5.98143147   -6.03706203     -1.73345323  -31.80066187  -10.63392031     -9.48191882    2.98758612   -2.78975151
    8   -5.75333455   -3.01994076   -2.08192217    -23.63994974   -0.72882379    1.31421537     -4.24859254    2.92129885   -2.38436163
    1   -6.22676651   -3.87504979   -2.17382620     15.84686735    3.63553586    3.26511200     12.65742385  -23.49756315    3.54687608
    1   -4.93074697   -3.25825071   -1.61259437      0.42182153   -7.50250536   -4.53400532      0.50761576    7.99386137   14.97570593
    8    7.16674934    6.64435573   -0.90088977     -1.44115450    4.38446035   -0.35410216      0.53611565   -1.51987084   -2.20672800
    1   -6.69256416    6.35017607   -0.78026724    -21.77953524    9.53981868   22.77948293     -5.76405914    7.35679046   21.58015206
    1    6.86992404    7.16736351   -0.09633727     36.05761402  -20.70549425  -12.55083320     38.11369076   25.51904102  -15.30358832
    8    1.13134246    5.27271211    3.73146863    -10.08283765  -12.22107720  -13.43739785      3.69619818   -0.82177661    7.91502267
    1    2.00379589    5.51668292    4.03656061      6.23712007   12.07362174   12.49728103    -14.18379493   40.41857701   13.99154883
    1    0.51664517    5.90681106    4.13101681      6.30023846    5.98253092    7.17920865     35.55766370   19.50181901    8.94527620
    8   -5.84945760    4.17602108    2.86984246     18.08446705    0.61290643    3.42371051      2.53603090   -4.36892814   -0.51012965
    1   -5.05443185    4.67022503    3.14247386    -10.02864470   -8.25460537   -0.50112931    -15.20644555   -6.79763850  -12.65156265
    1   -6.52452088    4.87611422    2.86056393     -4.60082467    4.43519668   -1.81587396    -11.69522042   30.02844309  -11.17332010
    8   -5.24040944   -0.67399415    1.49653889     71.58289372   10.76943429  -22.60652244      9.92347537   -1.07202819   -3.92922989
    1   -5.17777569    0.07488660    2.11716668    -10.67229766    4.64156982    9.47962199    -22.37105821  -32.17668973    7.91404430
    1   -6.08610259   -0.98605659    1.58906866    -61.93198079  -15.42056770   14.66019458    -15.37851301   10.55191380   -2.15812031
    8   -3.60863172    2.65750801   -3.29695949     -6.51108794  -15.89658684   -5.83872350    -10.52123420   -2.70499897   -0.54475470
    1   -3.03026882    2.27397813   -3.98631009      0.13356912    4.21841597   11.60778537    -20.59865367  -50.42791512    2.73304599
    1   -4.33599883    2.01007814   -3.29490041      2.61701340   11.74975655    1.28237546     -6.43703553  -13.73980472  -21.91484128
    8    1.02562529   -2.78999822    0.89240469    -20.54790461  -30.22382358  -53.79641607     -5.31200151    2.39006028    3.52582824
    1    1.92136167   -2.54706109    1.11726875     19.67839931    4.33863649    0.20486836     22.72626610   10.57760656  -13.91363473
    1    1.11073950   -3.22232155   -0.02675254      6.15628826   29.66768160   46.09128017     32.84208519   12.72488268   31.13191296
    8    6.43641665   -6.53962854    1.10924358     71.28861114  -31.01961682   34.10419012      7.41162830    3.30023984    1.22610194
    1    5.59825616   -6.88129753    0.73378313    -15.12936141   64.79329291   -8.71111943    -22.06491993   11.68088435  -14.78304240
    1    6.66983333   -5.56016562    1.07408526    -66.76346958  -37.57458300  -24.48280477    -14.66244979    4.90734518  -31.29726161
    8   -6.33124951    3.17099380   -0.54436106    -22.96930575  -36.30796068   -3.07031674      1.58241909    0.16126162   -0.35424085
    1   -5.88428694    3.99327952   -0.31923759     16.61501487   10.72746252   -8.48277846     12.62799270    6.93578704   16.35603208
    1   -5.76565984    2.67601946   -1.16842394      1.89331325   26.20404355   11.21717641     -0.41382295  -22.49016744    7.25835867
    8    7.23492375    2.53744304   -6.38788100      6.70330905  -22.76190390  -32.40630913     -1.85174397   -3.54914555    0.56097176
    1    7.27809399    3.32279983   -6.97687742     -0.42633547   -1.73556677   14.78481751    -17.75082368   18.10726170   46.25092929
    1    6.79924166    2.80451581   -5.59382459     -7.92305222   25.94356369   14.79117580     -9.07050784    0.61004140   14.44936192
    8   -4.49345695   -6.56997501   -6.58343743     -5.36172868    2.45749315    4.31844022      1.93749894   -1.30395390   -1.66554661
    1   -4.55961882   -5.58515881   -6.60372214      3.47728516  -11.20104064    0.88530879      0.17474008   37.95591788  -24.35887784
    1   -4.68049604   -6.78190129   -5.64109789      3.65645619    6.99389459   -4.89612698     11.76825717  -11.63807321   -8.42062776
    8    6.05893479   -4.23995061    3.26174103    -49.10225888   11.37251893  -29.26316405      1.23244346   -2.49708950    3.45183985
    1    6.89777467   -4.05216474    2.90462094     39.57507373    3.98877279   -3.72458110    -20.66122174   -9.63817522  -17.32427383
    1    6.22682991   -4.49205050    4.13901864     12.74060473  -14.67338400   40.42170596    -39.19930594  -17.95479240   -7.86256819
    8    0.19118604   -4.76659643   -3.31492641     20.01644083  -18.92273840  -31.75034674     -5.53306772   -0.25225173    2.77768707
    1   -0.01806084   -5.61900589   -2.87816984      2.02358715    8.63724832    9.53085300     -2.87208974   -0.92036733    5.15777263
    1    0.51976392   -5.10749763   -4.18958838     -6.56814684   17.06470529   22.88842849     22.66092284   13.59888997   14.15810517
    8    5.66973239   -0.94028869    3.21638795      4.78603336  -24.15311815  -19.67691608     -5.46780009   -6.20521014   -7.94568679
    1    5.26693289   -1.81995623    3.06444354     -0.25841736   15.44322178   15.57376202    -36.95488108  -17.12016203    5.22472078
    1    6.17390271   -0.85069922    2.37202139     -7.13009458   12.88698302   10.93752763     -5.30855134   32.69332540   11.79109207
    8   -3.22526748   -1.70520646   -5.61310691     39.15139979  -38.90027176   46.76768202     -1.67604919   -7.87147541    2.57537789
    1   -3.05435688   -1.91580418   -4.64969099    -18.24443552   20.31377608  -27.99066684    -24.80708111    9.76802602   21.29203354
    1   -2.47775636   -2.22984591   -5.99554969    -18.17793931   20.44600419  -12.13960092     -4.02306961   -8.21034293   -0.03725402
    8   -4.06123897   -4.01562546   -7.24224118      5.27147655   21.37640700  -23.09376547      6.56318175    1.81198207   -3.94302496
    1   -4.51358691   -3.23599586   -6.94760959    -14.21592641    6.94183555   25.48436780      7.97866046    4.20990797  -27.99596554
    1   -3.68608178   -3.63003945    6.72704011      6.46895028  -29.94340380    5.28664264      5.84866066   -9.66266413   17.46629819
    8   -0.95477433    7.13329168   -6.15744657      4.69769725   28.59392673   14.70511975      3.64110551   -0.70476644    4.20660038
    1   -0.75786726    6.18345122   -6.03957104     -8.98598116   -3.14071297  -21.88450170    -24.80365338  -24.05214840   13.64586686
    1   -1.45481027    7.21595891   -6.99986346      3.17574206  -26.29646532    2.66479896     -0.04298718   -0.95391598    6.42736540
    8    5.78122453   -4.55148574   -2.66148822      8.73486630    5.89005827  -21.30915672      1.57607421   -0.53057440   -2.35160775