 BEGIN_INFO
   #
   # This is a XCRYSDEN-Structure-File
   # aimed for Visualization of Fermi Surface
   #
   # Case: Tight-binding calculation
   #
   # Launch as: xcrysden --xsf HICOLM.XSF
   #
 END_INFO
 # estrutura final
CRYSTAL
PRIMVEC
      15.46099885       0.00000000       0.00000000
       0.00000000      15.46099885       0.00000000
       0.00000000       0.00000000      15.46099885
PRIMCOORD
  300    1
    8   -3.87205655   -1.67584249    0.46056888    -12.75333648 -109.55323163  -66.81970223     -1.14037204   -7.63306847    4.97828200
    1   -4.76690268   -2.04130680    0.52932314     14.87082114  -10.61393650  -13.18381340     71.17907789   71.28382238  -32.83657107
    1   -3.98644520   -0.99340308    0.93759834      4.71556316  115.76114849   74.29126175    -19.35382897  -11.23815342    1.28637636
    8    1.34434568    1.93080451    4.54784088    110.19923703   -6.32766189  218.40801783     -9.60294768    7.71625902   -6.08960598
    1    1.82106029    1.56147949    3.86599499     34.14250394  -17.32056521  -30.71364150     81.24093923  -22.70692082   -5.81273333
    1    2.02883837    1.81506818    5.50361348   -136.10345490   17.03395345 -198.83049222     97.18523875  -33.04477508  119.57049222
    8    5.36792360    7.03203403    3.97358342    259.33076763 -319.28560770   85.93748629      0.66376151   14.35162215    2.01563876
    1    5.07678004    7.54805436    4.06616834   -205.06559677  348.74109528   44.11474989     91.44734854  -27.62075220  -15.12161964
    1    5.17145770    6.77770409    3.20509848    -49.72307974  -23.43179030 -139.06816758     -7.53487186  -28.28357189   55.36663864
    8    7.32473652   -0.28198890   -2.26576893    -51.21341693   29.61369255  173.91671964      7.73136569   -5.18516999   -3.78652929
    1   -7.18064855   -0.07375143   -2.01112550    -54.05085983   -7.61551733  -11.85122974    -42.37054905  -21.28964962   33.47065291
    1    6.74644186   -0.13349116   -1.28692268    109.55933000  -21.32581395 -177.35336114    -35.02533102   19.93958297   46.03844130
    8   -2.06953578   -6.73287901    6.54671183    -58.67509922  199.27271707  123.33904868     -0.98088064   -9.65239211    0.72014682
    1   -1.19494566   -6.65018719    6.72145198     79.01089681   17.87380710   21.17982496    -69.29368937   50.68870807  -10.04868792
    1   -2.06015367   -7.36589311    6.16870933     -8.41373387 -206.22422903 -126.37218372    -11.22158299  106.89004425   39.09822470
    8   -7.57918538   -0.58219740    0.53746632     20.61773538   41.39550380  -67.91393246    -14.68218071    1.60755076   -3.78790273
    1   -7.34170467   -0.82750257    1.36453666     26.32155596  -13.60440147   71.60848464     32.56754573   10.21524142   10.42976880
    1    7.10694772   -1.07133611    0.38028392    -45.42923398  -27.18485381   -3.58126795     66.91237210   76.87462626   44.75459735
    8    4.08839451    1.88839167    5.98823564   -314.76402178  150.68118479    9.30220548     -4.40085174    5.52553074   -4.32771934
    1    3.49029476    2.60301458    6.68842242    113.98332796 -130.52843822 -125.81269828    -39.77258262   54.99802837   53.59315603
    1    4.73465959    1.78294413    6.36760048    192.13017028  -31.82774646  112.78350430    -50.38486977  -27.95798130  -10.69232481
    8    4.16378791    7.48004583    6.51021538     69.56030791  -10.99758356 -101.02492300      2.42147279   -2.06682767    9.23052479
    1    4.89244720    7.03432881    5.94414782    -57.16089326   43.42812499   12.43937864    -13.96169754   -1.38978340   60.89780233
    1    4.32031493    6.98849066    7.23738277    -12.50508272  -25.94630621   73.86077325    -30.94218416   83.38755843  -43.43547972
    8    6.03671632    2.37471881   -7.34853396     93.44127791  160.91055566 -175.04726684     -1.88376673    4.52207757    3.73024469
    1    5.78598145    1.87064996   -6.80489343    -47.76332759 -149.88690509  128.85513926    -28.25989558  -31.74326725   -1.81009191
    1    6.81728793    1.96713412    7.57030692    -55.29968383   -0.08921983   59.31355927    -84.82226366   15.73144183  -17.56872260
    8   -4.27707885   -2.61398945    4.27650029    229.98214430   71.64682760   79.41566807     -3.34634720    6.05496995    0.64979406
    1   -4.39387111   -3.34482202    5.00275338     22.40403130   62.78098161  -51.75074153     63.89710664  -53.42819455    2.62490288
    1   -3.20391831   -2.09466066    4.47385277   -231.81105929 -128.73082257  -34.39931458     34.99845353   20.59273591   34.37943064
    8    6.87430341   -6.30812528    1.98245211     42.93878953  128.14317337 -109.56371305     -1.23915034    3.20416168   -7.04354540
    1    7.50325853   -6.55372136    2.46555444     60.47236511  -91.41782982  115.08395502    -55.05960297  -44.24794133  -81.28049043
    1    7.54497670   -5.56043062    1.66031559   -112.51455113  -42.16831182   -8.89481259      0.58439519   22.76149991   19.38765568
    8   -3.83089108    5.94950005   -2.98403796     89.35845375 -109.50471738  -79.80270756      2.89914746   -0.43949821  -10.41185891
    1   -3.20829597    5.29741510   -3.62825224    -87.09051993   99.44418190   87.80596559    -37.56029751  -17.43794845   42.96323471
    1   -4.20479030    6.56516151   -3.58973829     -3.45701606   13.74699795   -9.81747965     63.91106541   -0.56641733   76.98623424
    8    2.73787259   -0.48424881   -4.23966161    152.21265750  -27.04389637  168.28512757      7.22547485   -1.51397375   -7.49575907
    1    3.62139703   -0.33626994   -3.42794232   -202.27827279  -56.53207217 -176.84446529     41.44765930   26.35819578   51.07276090
    1    2.27103321   -1.42816156   -4.06297320     61.13336766   95.95452683    7.48847816    -55.60580874   23.16431246    5.22318935
    8    6.28311223   -1.94821475    7.65266039    251.07663013 -199.92995759  239.46915741     17.96573834  -10.65017783    2.01379989
    1    6.33933944   -1.65642390    7.01347288    -53.43723651  128.23660411 -277.06106200    -86.44700476  -26.12027851 -111.42730897
    1    7.39105314   -2.30645681    7.54078541   -227.06587179   43.84734755   57.91991381   -118.59544740   43.90970292   66.03351911
    8    2.84803648   -5.42096640   -5.74480481    152.90180535  119.19025115   44.82021489     -2.17216215    0.91012194    3.15339350
    1    2.29947450   -6.02074087   -5.71325500   -107.97394469 -125.76556023   20.79747149     58.87328194   75.48176280  -33.34720507
    1    3.42945332   -5.51534603   -4.88688125    -53.97461630    2.53772493  -60.00163689     31.28861552   29.91286365   15.88989689
    8   -0.68532506   -6.80388139   -4.48486232    -44.77907834  111.61232936   78.06294183      7.76854473  -15.02552336   -3.97627438
    1   -1.27062639   -6.94928419   -5.08698804    -36.34903817  -80.75588941 -115.13389320     21.43886623  -11.95304434  -19.76650443
    1   -1.30282842   -6.04829558   -4.20559502     80.93437276  -23.59111922   35.42123139    -43.32390795   72.55621663   -3.57956844
    8   -6.10830053    6.69363569    4.44711586     27.43733674  171.38659983  -20.00412549    -12.84765747   16.80653785    1.02243735
    1   -6.02002226    5.80512984    4.44146875    -70.23385149  -87.99171051   25.82842865     68.95797395 -228.80055061   35.60497836
    1   -6.97750523    7.17947980    4.72224914     37.81713742  -90.14294408   -7.14155479    108.36669198  -23.62510074  -20.99478886
    8    5.04184902   -5.04757713   -7.46807653    -12.59391400  -25.14541247    8.20167951    -11.47587996   -0.37900239   10.41505429
    1    4.87696392   -4.17161584    7.66948685     -9.14238421   12.01342260   -4.38429685     -2.23688284  -57.64698028   58.58819144
    1    4.15806154   -5.38569839   -7.12374294     31.91402349   22.89189851  -15.74828576     84.66673991   22.46778883   21.98439112
    8    3.03651045   -1.24989655    7.51486125   -271.26453254  -54.52329859  -82.83281316     -1.08497563    3.04483419   -1.88698357
    1    2.84874691   -2.21810239    7.24721588    -45.35081936   80.14183266   11.07275042    -26.15837193 -101.68813319  -26.28935042
    1    3.67791782   -1.43933053    7.61976166    319.50593259  -12.39333277   69.58013536    -52.24529048  -69.03567609    7.00672629
    8    0.22044414   -0.44768942   -6.22165095   -100.60475222  -21.19282483   62.65710197     -9.70330414   -6.47179153   -2.45701689
    1    0.99723937   -0.30573410   -6.53869967    119.79008581   16.79141212  -36.66776592     -3.61632508   36.49549266   27.35356680
    1   -0.30618484   -0.31929103   -6.97571149    -27.00072004   -1.94621790  -34.03578006     23.45395881   -4.22964949   50.71171365
    8   -0.67995258   -3.08781045   -3.07507128     -3.34593806  -24.22352745  -29.84847092     -1.67179342   -1.13394491    3.96490785
    1   -1.05065333   -4.02807595   -3.00412553     14.94748381   52.77424328  -20.28824662     61.71891518   96.75172374  -15.86195613
    1   -0.75926111   -2.80554642   -4.05297575     -4.49643020  -32.64051061   45.10509506     -1.85079344   30.58697727   13.30517176
    8    0.17599865   -3.68244892    0.92950296     33.86110451  -86.33074360   81.55438777      1.22981065   -3.75924527    2.80216519
    1   -0.67930798   -4.07256393    0.94110839    -56.19076944   27.92628724  -34.66870122      0.76255679  -32.12481942  -10.39930621
    1    0.41151300   -4.33400756    1.67198630     32.76027137   56.23239876  -33.32141297    -25.18238239    7.15388239    4.92352264
    8   -3.47920864   -6.36828034   -0.37484815    185.51379614  -35.76038271   37.89121133      7.52128720  -14.07887125   -0.28631166
    1   -3.55878328   -6.70345056   -1.22361529    -33.11609429   -4.99888554  -46.64037425    -11.80673150   29.66736734  -23.68797742
    1   -4.17051175   -6.05730710   -0.10416461   -170.85191194   55.89324097   16.94226779   -193.54491349  100.34694780  129.92374790
    8    3.04747784    1.45218043   -6.41255382      5.83678447   27.55428630 -104.99123788     -8.80085780   12.10110727   -0.14992227
    1    2.92942245    0.88760213   -7.29584487      8.79392105   20.55387160  104.94649643    -45.46492754  -10.32136225  -30.07186640
    1    2.99284379    0.93161758   -5.63513038    -10.72597252  -61.63614833    8.14004665      4.06361393  -36.32311178  -29.21603741
    8    0.58742946    5.27177880   -7.19400295   -462.76064288 -171.57287549  305.57441607      3.20993928   -4.93718203    3.62831978
    1    1.23924286    5.17981474   -7.43249821    272.14318499  -95.40523105  -56.10245415    -78.43128073    3.45306676   91.01822252
    1    0.09866487    4.34850234   -6.36425318    191.98738453  255.26502326 -250.51699775      8.40801734   94.32755193  -34.83285136
    8   -1.16210236   -1.58480017    6.69483849   -158.53315398   68.24470862  -54.61258527      7.07521529  -12.14324582   14.17639357
    1   -2.12297134   -1.42643911    6.17859482    121.29917920    5.18414656   89.76074699   -112.25243970   49.80930098  -58.40585330
    1   -0.89185650   -2.22039449    6.13210022     56.02559045  -64.38159789  -39.61195188     -2.82769518  -24.89973107   25.22849520
    8   -2.04937857    1.97121145   -7.25713514    -50.22284501    4.10722307  -54.37139390     -2.83619004    6.79722644    8.85622202
    1   -1.86818346    1.95326577    7.18664381      4.33152982   -0.98170818   72.38112008     12.24429759  -34.22583605  -76.37427690
    1   -1.20722794    1.82571243   -6.85874329     24.13043955   -8.81682094   -1.09125545      2.27018821  -26.30279832   42.08686500
    8    2.58878916   -2.19748274    2.34917525     -7.30284754   87.35974288 -117.81206489    -10.68883821    3.26329148    7.79720120
    1    2.95104960   -1.28813510    1.83960739    -55.68732873 -145.25904653   63.61183993     68.92426089   72.74763027  -81.09671103
    1    1.96002688   -2.72203851    1.68540654     55.32320033   53.49089715   52.51878918    -41.20744432  -23.78187020 -121.79914029
    8    3.59010963    4.42103606    5.92452518    -98.85177247   -4.57167376  -45.77560381      2.17629606   -0.89168647    3.80171612
    1    3.76358262    3.92517993    5.07787713     23.47655157   17.12025897   43.85763437    -67.15099993   -2.99915772   40.57545504
    1    4.34972039    4.46186680    6.45362849     62.56367461    2.60325393    7.59370279    -56.35141257   37.63703736   -6.96601839
    8    3.64125971   -3.53685254   -1.14469806    235.09690030  -95.98189033 -110.35237190    -18.86005378    6.23596132    2.05231188
    1    3.02244436   -3.26165909   -1.54100469   -199.28444141   94.79488123  -52.10029540    171.42631675  -51.76532230   79.44201136
    1    4.11138357   -3.72653149   -2.13606108    -28.83830307    8.29003064  162.88360205      5.66580215   -5.67935286  -51.89990450
    8    7.60557324    3.77975764    5.55602795    -44.45183878  -15.22819137 -121.85757532     12.44089690  -28.14593722    6.68540689
    1    7.44540548    3.50058824    4.45091489     46.10878895   21.42597292  183.93938186      2.70733642   55.12335550  154.51158082
    1   -7.06247527    3.34790320    6.00565597    -22.42225843    3.53458829  -48.21323970   -222.53227531  147.25131970  -26.72002470
    8    7.24847166    6.72946541   -3.52740336     -7.70084836   25.01020992  -56.58544911     -0.52134499   24.72380087    8.12381690
    1    7.43912191    6.77980048   -4.50904041     -0.47193492   -8.69625558   41.25268579     61.27643154  -51.03174185  -80.12804311
    1    6.53595756    7.40926931   -3.48790040     11.77209698  -24.26469593   12.79396589     47.63462862 -112.45773974   64.21025889
    8    0.94410614   -7.01502439    7.10599138    -52.01164915  -35.76839490  -35.60351662     18.61775851   -5.35679956   -3.23279636
    1    0.82717460   -6.70591951   -7.51379900    -20.74206533    5.33150296   59.72122984    -32.74887793   26.06752358    4.39174648
    1    1.66693355   -6.54684574    6.88749496     72.80092076   29.88292434  -38.84517369    -64.08986662 -104.43853021  -17.89689772
    8   -7.40265105    4.01157932   -5.73251339    -58.06742731  -66.92758923   33.93523461     -4.59330743    7.34218004  -12.28967886
    1    7.17926268    3.42790911   -5.79056066     79.19849699   55.18326726   14.68873767   -143.75820783 -102.79147049   -6.42926202
    1   -6.89900565    3.68913326   -4.92657039    -33.63369807    5.54190534  -40.28513871     53.09095790  -43.87948999  172.10492558
    8    7.62543439    0.25375678   -7.65339199    229.33620635 -148.64562123  269.87111581      3.02723486   -9.20776997    2.08014963
    1   -7.30838474   -0.53152311   -6.80453876   -123.31248980  236.28414390 -195.05162065      4.27751689   25.41630230  -67.19662316
    1    7.02993800   -0.30349675    7.57265970   -106.73737919  -63.09947205  -49.38148068      8.65221177   19.09973445    1.58179028
    8   -2.67170559    5.43890079    1.68081997    162.09507196 -154.48203437 -261.88411447      6.50505702    1.58122889   12.70749846
    1   -2.50482540    5.99321506    0.77650455    -39.29595156  -32.71202677  120.58537661      0.28349950   42.40437506  -83.36990694
    1   -2.14616806    4.45914497    1.19473822   -120.66381640  183.36566122  140.87051590     34.43474276  -62.39973874  -49.90745684
    8    3.37656839    6.85971819   -5.23815989    -40.24386238  198.04273399  107.43544720      6.79358446   -6.25999732   -5.56809697
    1    3.88977031    6.34828737   -5.54179440    103.41740868 -145.51263995  -80.61841190    -68.97115813   44.15332184   70.91464673
    1    2.54534268    6.56669111   -5.32267140    -75.46688506  -51.34762358  -23.10188668    -82.20987554  -44.47328996  -35.16374443
    8    0.86317546    2.93516304   -5.58167240    -87.04441304  164.64107826  -96.40277718      6.63246338  -10.27246487    0.30718681
    1    1.64884277    2.50683950   -5.57109993     41.46068303  -89.88379467   47.98243467     50.35306300  -21.66935695    0.22713207
    1    0.12378392    2.66138587   -5.04245727     33.23590860  -60.66983138   47.90931291     -8.73410186   14.46574359   50.49813737
    8   -1.59118335    2.78152102    1.20355849    161.01508263 -107.76480576  -87.67445131     -7.35296824    4.04131192   15.42849964
    1   -2.32600388    2.17752885    1.19641413    -26.83042176   -9.35148849    4.00762314    101.45536498   51.90125459  -29.56835674
    1   -0.77156531    2.11748944    0.75852098   -143.97665589  122.29603750   76.08581877    -13.83134855  -45.65109765  -19.87748762
    8   -6.73752484   -7.53467425   -1.07754570    -61.61879315 -175.15978238  -49.84002971      3.71665997    0.44736978    1.67849889
    1   -6.03721888    7.32207671   -0.68496575    -24.29830503   34.47405857  -13.68834193    -19.86788667    1.42932566  -11.60907817
    1   -7.35812136    7.15157641   -1.59887907     82.41449549  131.13174753   69.32761202    -21.72460017   36.37003355  -51.53898833
    8   -5.37333069    0.07160398    2.97975556     89.18284320  -55.53521068 -187.12976768     -1.05018379    0.11453787    8.64426414
    1   -4.66113605   -0.20185501    3.47249219     49.31667676  -22.24542953   29.50731470    -32.85867247  -13.09942119  -38.42548294
    1   -5.88638440    0.30081308    3.50298620   -137.11878246   66.31267493  146.42236566    -76.23372790  -43.21771404    0.22302968
    8   -3.34947941   -0.07348953    6.03669202     57.73082147   49.30051842   59.09273547    -19.43734676    6.31209667    5.77272889
    1   -3.50174885    0.55964405    6.76522894     46.75741947  -11.96186892   -9.26172356     58.79117983 -127.62163433 -174.05594805
    1   -4.18765132   -0.13697448    5.86705499   -102.72075919  -48.31941021  -59.05071942     28.76865140   35.55907035   -0.95049100
    8    1.86767229   -2.17322136   -2.28855718   -253.24723543    1.84596701  -34.63253243    -11.07461687   -5.73804942    0.72863461
    1    0.73994705   -2.44714952   -2.51518675    211.39139254   46.43648445   44.12308332     55.53852583   36.86931936   60.83300748
    1    1.76294050   -1.29344642   -1.80565559      6.30366316  -47.37199228  -18.86985647    -88.19327386  -36.02742052  -18.95701559
    8    2.14402386    2.69171326    1.22211528    -12.76521170  143.38434334   73.15025089      7.35041029    4.47186638   -1.89077579
    1    2.55140030    3.66831812    1.49272909    -47.47429675 -129.98322000  -39.98747209    -61.03847859  -48.14866662  -30.80526290
    1    2.80779512    2.11615627    1.08040113     75.45943077  -30.18141270   -7.66202406     -6.73094678  -28.99639552  -83.75941300
    8    4.15091206    5.40033085   -0.64801677    -64.02216221  -47.52289480   19.44365514     12.24247103  -10.76479440   -2.49028220
    1    4.18210615    4.47639837   -0.44446726     58.19322305  -13.50825458  -13.41940396     63.86209676   88.89277031   10.11477615
    1    3.18936351    5.37768257   -0.45490201      7.67287831   54.05697468  -16.37012965    -84.13504030    6.16246412   56.07050359
    8   -3.43406562   -5.02230459   -3.27378959    335.81785226  -50.23399311 -187.32172013     -4.03214096    5.38177749  -17.03803783
    1   -3.88562720   -5.05811351   -2.69951380   -245.45407629   32.69613295  146.54856487      9.86932496  -69.27961462  -40.48187846
    1   -3.64560280   -4.65711701   -4.14162631    -74.14474800   10.95440961   37.55940567     58.26272041  -69.90165504   96.30759359
    8   -6.78188144   -0.14164290   -5.20220790     49.96744001 -177.10624921   93.92864317      3.05905953   12.68963462   -1.04172858
    1   -6.84807312    0.49855852   -4.59459361    -18.48961887   82.08900378   31.41337359      1.95126502   18.62714860   57.17529598
    1   -6.59937699   -0.95993472   -4.43187034    -39.40655366   93.15641434 -131.09711844    -12.44086508  112.02282955  -10.44855838
    8    3.82064787   -3.77370643    4.36032314    356.46009804 -105.20339611  103.58802716     22.70377299   -8.28845162    4.58342686
    1    5.07110570   -3.95370428    4.40910237   -329.33899348   44.44217481   -8.03208415   -126.57156777   18.77613527    5.28879520
    1    3.72359601   -3.28690947    3.64850204    -23.21744852   61.82676622  -95.06572972    -43.78401582   12.54972291  -34.52735629
    8   -0.82961062   -7.36687463    0.31023787     75.66197413   17.64217130   63.36878938      7.75152868   -8.10053872   -6.98081396
    1   -1.05357776   -7.01022061    1.23286333     -4.65119777  -19.79403946  -57.12640543     10.46096768    8.78409429   92.60043155
    1    0.16654255   -7.23575895    0.33884535    -46.72062960   -6.84007676  -10.78971389     34.89017824  -25.40433196   24.78918632
    8   -5.98329383   -2.05320284   -3.71822130    253.16369377  -91.06390995 -205.59398693     -3.07346409   16.95184119   -1.76703569
    1   -5.58052271   -3.06705790   -4.21257411    -99.03715149  209.22635713  115.00206216      0.34285255  -31.48614578   17.11876247
    1   -5.20821765   -1.33499913   -4.19549691   -141.11122935 -123.97529158   96.19046378    -75.98083396  -32.83609249   66.70168981
    8   -1.62259719   -3.57579764    4.32652377     32.19235111   -9.28456746  -41.55874206    -11.23175982   -3.85246951   -4.32078859
    1   -2.20017725   -4.05201666    4.83897455    -17.13518941   -9.32522539   23.76593622    -30.38144415  -44.63897420   42.80721082
    1   -1.20711854   -4.35722884    3.82339462     -3.00924839   24.42506367   13.43102308    -19.83918565   54.29065439   32.01329731
    8   -6.33897151    0.61182405    5.76584339     -7.71602043  -62.43748414  -34.15995288     -6.50929204   10.66860857   13.30015730
    1   -5.85805075    1.25599436    5.67373591     54.51806495   71.35801080  -16.96315357     15.22411795  -25.11793089  -25.05005837
    1   -6.84962152    0.93959390    6.45644688    -25.30986790    2.85978562   33.65855523     43.27972040   -9.72518590  -89.66763231
    8   -7.28244768   -3.00549252   -1.32586776    -17.18582025   -3.99529515   -9.67385910     -4.54978477    4.63792877   -7.56300425
    1    7.56203803   -2.60897677   -2.05081285     21.34457612  -15.65980327   13.72568858     44.00723915   32.00066601   24.88164953
    1   -6.94582939   -2.18162125   -0.95975364     -1.82022952   -0.38283496   -3.14985143    -82.21260134  -51.86344878  -26.27354931
    8    0.24509961   -6.07080068    3.23328897    -13.78747915   46.55103135  -56.54371868     -1.52485757  -12.72968986    0.62315331
    1    0.79118905   -5.67908888    3.83787925     25.62892824   41.72452755   21.09801681     10.63733330  -13.68776476    7.83997155
    1    0.35092780   -6.81623119    3.58791072      1.26084562  -88.47318363   26.66611230     14.53011717   45.20077013   24.32722711
    8   -3.47603874   -3.18480101    7.05359638   -130.76543244  -43.51225787   48.91540969      1.63410074    3.31626445    3.29399442
    1   -4.00705197   -4.03635073    7.60386179     53.00849353   69.63851985  -46.38811088    -77.87180617  -32.79637207   68.18979192
    1   -4.43786639   -2.56363528    6.97689388     71.57615765  -38.31892447   -5.44972729    -10.76111367  -58.88467449    7.11807415
    8    4.68348089   -4.86407031    0.94583818    -23.40441453   -9.64576155   69.84660234      9.92514980   -1.22878204   -1.75539672
    1    4.66565563   -5.27958957    0.24991704     45.89606338    7.32117787 -108.44577195    -52.49506153   -1.88436985  -23.37295823
    1    4.06336347   -5.59732288    1.00861095     -9.34600934   16.16137234   51.96495589    -47.29786534  -73.39297694   27.35745142
    8   -5.72255002   -5.28510668   -1.99198323    -30.74110564  143.84625541   16.69256749     -0.87158256    9.92764125    8.68621194
    1   -6.00431109   -6.07509848   -1.57565433    -36.40186434  -16.49377847   21.26117198     18.28309009   66.56314332  -64.61969773
    1   -6.27048015   -4.26306576   -1.53875961     45.38199495 -116.80601066  -41.49688896     18.21516478  -36.85744930  -11.05861768
    8    0.83877976    5.02548619    5.20474947      3.77682061  -29.58304110   76.50961815      7.39377415    2.32735196   -6.53650094
    1    0.45496092    5.07063752    6.33052898     60.14347892  -13.71407521 -104.59274805      9.24590001   13.23913422  -66.30590817
    1    1.76889421    4.46288666    5.03601342    -60.74574221   33.82374884   36.98767265    -31.28677595   58.88916748    0.34783270
    8   -2.88503096    3.75729884    3.78500052    -10.69506710  -84.30782659   72.72846781     -4.33167290   -5.68552767   -0.47198989
    1   -3.80460234    3.77341358    3.94098919    -15.42763497   -0.69417888   -5.49032990     13.81902294   34.92782665  -24.50956140
    1   -2.73401311    4.38617075    3.30586992     16.87814818   77.05725146  -66.65496652     10.86760697  100.10060795  -39.36738977
    8   -6.45709476    3.00128385    1.89065764    -56.36801015   91.58817598  -74.43653652      1.65262873   10.57698921   -5.84220239
    1   -7.49452875    2.93129555    2.09929052     51.82552216   -4.04613775    0.69784263    -73.33889590    0.85066264  -18.38019014
    1   -6.55768513    3.82515650    1.05355114     17.18283446  -79.97655382   86.18883166     -4.69686225  -51.91071511   50.28742459
    8   -4.26979345    1.90362434    0.37584836     79.07852600   23.36687983   -6.86048681     18.41360366   17.88787333    5.18113836
    1   -4.52167395    1.83061450   -0.55066637    -31.38801486  -10.29649475   10.50244682    -23.53417980  -24.38786088  -12.43987064
    1   -4.88483796    1.71224029    1.04205104    -49.91549564  -13.39644101    1.02519875      0.35755859   17.17847703   24.16563577
    8   -2.24382919   -4.48581735    1.54831720     42.97638299 -159.52582793  -13.74413219     -7.08713564    1.02263381   -0.70964505
    1   -2.92641072   -5.06741714    1.02756834     14.23266867   34.41966148   11.04568049    -11.54266415    0.86016066    2.69942244
    1   -2.46193704   -3.78467039    1.60954667    -62.53299477  123.00413881    7.02188702     11.75963646  -10.95785122   33.38789871
    8    4.70087260    7.10830791    1.30958625     30.71616308  120.14102393   61.42647411     12.13863457   -3.36908018   -1.49224064
    1    5.65654777    7.62798293    1.39203138    -57.85112988  -11.85293135   -2.91004851    -56.53465771    6.99641040   11.65689065
    1    4.96053311    6.41248850    1.05775401     21.47522996  -97.61946390  -43.13947042    -54.84724870   45.53163430  -17.99119930
    8    6.64631474    3.29023457    3.20398985     51.86616723 -114.31552244   10.36595175     18.33420065    1.60861103   12.86553066
    1    6.32845337    4.03260821    3.12300037    -51.21757962   74.74021759  -19.21491001      8.20966711  -75.77314419  -65.62740961
    1    6.02199519    2.55485321    2.87478453     -1.63661698   29.63567101    5.88302187      2.13160282  -17.22213594  -45.13909042
    8    4.11249889    3.81785101   -4.29262792    -11.03093171   13.18078385   18.05304206      2.12919472  -13.21056547   -1.78338119
    1    3.58166521    3.22088295   -4.76007369     -6.80200425  -17.14109600  -23.14078568    -12.72427354  -28.90953860  -30.31744985
    1    3.35455703    4.27945701   -3.80970781     17.57014382    3.50446580   -1.67908136     42.36172330    8.82908761  -52.28629550
    8   -5.31355076    6.31641725   -7.07091150   -142.98837879   43.43876867   -4.05478480      0.77762367   -1.66432407    0.94877093
    1   -5.32723271    6.10582705    7.41853033     10.86717961   -3.42687751   12.76956580     -7.99105673  -56.04448146  -91.38808089
    1   -6.52583710    6.61142182   -7.00231559    138.75960945  -39.91402060   -7.79320258   -114.31902689   10.50519854   -2.35509043
    8   -5.79702490   -1.88850452    6.55162631      4.65344006   -9.33450957    1.65867356      3.90169602    6.92918090    0.71589611
    1   -6.01876137   -1.18198559    5.81663706     -8.25163347  -12.20048563   27.26173406    -25.12003871   82.59879533   23.25993204
    1   -6.25261040   -1.67382859    7.40184878      5.38885162   10.02862123  -20.60970809     31.57722267   51.23040585   73.40563110
    8   -5.71016765   -6.28983270   -6.33883348    -49.56006550 -153.77770246   28.35646013      2.42915981  -11.98611436   -1.22154204
    1   -4.96034816   -6.81507202   -6.92427354    -46.23552073   23.85872753   36.80201654   -106.40761535   83.59414602   40.07273730
    1   -6.49174820   -7.19999951   -5.93684566     92.50865178  115.65089972  -54.25805147     29.58929597  -10.92251294  -17.40957600
    8    6.53906534   -2.58178837    2.65352375    -56.26474622   -0.97826252   81.83113922     -6.20639028   -4.97722259   -0.15895497
    1    5.73113403   -2.93265386    2.18180256     15.03743503    4.46954320  -18.45841825    -36.43878813  -16.99496153   21.29100255
    1    7.17923283   -2.42509635    2.09138377     31.96637963   -6.27207786  -49.14060068     -1.30769180   65.80046690  -13.00138426
    8   -6.12730109    3.16842980    7.57693024     72.43686500  -41.82816225    2.83914102      6.11159249   -4.98483666    7.70876359
    1   -5.41484977    2.68399743   -7.19703948    -52.21058381   31.99971881  -39.17280183    -23.50268553   60.52352055  -45.22393507
    1   -6.94520630    3.26210817   -7.37591233     -0.11102793   12.98008594   18.55998921    -36.41600659   59.57606704  -14.62763645
    8   -5.11129466   -6.40855595    3.08239396     77.12948168  -84.67906771   35.67461152     18.37258562   -1.70372169    6.53202936
    1   -4.12967557   -6.83579055    3.52928718    -59.22836603   66.54653470  -33.30647171      4.65513482   34.88956782  -13.83516711
    1   -5.37493846   -7.37846044    3.00181948    -18.13117388   23.85372298    1.96758174    -23.64331324  -53.11793910  -37.80871817
    8   -0.73113223    6.89822697    4.45945482    -82.16678441  146.27178462  -38.48362361     10.03774673   -1.09570202   -9.44017932
    1   -1.39595427    6.36681655    4.58655408    -58.45360948  -22.46101280    5.09635987    -12.61383437    9.82106744   91.53283720
    1   -0.30176117    6.36330107    4.56638284    135.64790413 -109.80249727   22.47052063    -73.27226190   -7.63450961   11.34710515
    8    1.83649157   -5.66570292   -1.66290300    -72.78377693 -134.48484825   -2.53496254     -1.69255155   -4.43676353   -9.64420661