ATOMS
    8   -0.13297213    1.15725030    0.00000000   -0.03614975    3.53840708   -0.00000000
    1    0.06321496    0.19113450    0.00000000   -0.00622208    1.22580035   -0.00000000
    1    0.74136216    1.58994352    0.00000000   -0.17308684    0.32560483   -0.00000000
    8    0.09640547   -1.03075848    0.00000000    0.16115691   -4.90901211   -0.00000000
    1   -0.35312352   -1.41506534    0.77656513    0.02715088   -0.09040008    0.13076644
    1   -0.35312352   -1.41506534   -0.77656513    0.02715088   -0.09040008   -0.13076644
