ANIMSTEPS   35
ATOMS    1
    8    0.45632626    4.54977494    0.00000000   -0.22100090   -0.38253752    0.00000000
    1    0.38943776    3.56616984    0.00000000    0.24093220    0.59394386    0.00000000
    1    1.40713826    4.76813613    0.00000000   -0.02007108   -0.21372174    0.00000000
    8   -0.38511650   -4.41079983    0.00000000   -0.18560720   -0.09628322    0.00000000
    1   -0.90301092   -4.69792069    0.77721443    0.09287349    0.04929931   -0.10295625
    1   -0.90301092   -4.69792069   -0.77721443    0.09287349    0.04929931    0.10295625
ATOMS    2
    8    0.43949314    4.45086965    0.00000000   -0.21747383   -0.38481603    0.00000000
    1    0.37480707    3.46712061    0.00000000    0.23729611    0.59385835    0.00000000
    1    1.38987334    4.67108560    0.00000000   -0.01997089   -0.21158835    0.00000000
    8   -0.36919621   -4.31188977    0.00000000   -0.18466554   -0.09563668    0.00000000
    1   -0.88660643   -4.59987319    0.77721179    0.09240708    0.04909135   -0.10271534
    1   -0.88660643   -4.59987319   -0.77721179    0.09240708    0.04909135    0.10271534
ATOMS    3
    8    0.42264309    4.35195112    0.00000000   -0.21370797   -0.38708137    0.00000000
    1    0.36025418    3.36805814    0.00000000    0.23350537    0.59366560    0.00000000
    1    1.37257084    4.57409962    0.00000000   -0.01995533   -0.20939055    0.00000000
    8   -0.35329814   -4.21296860    0.00000000   -0.18370187   -0.09493333    0.00000000
    1   -0.87020300   -4.50185003    0.77720914    0.09192990    0.04886983   -0.10247499
    1   -0.87020300   -4.50185003   -0.77720914    0.09192990    0.04886983    0.10247499
ATOMS    4
    8    0.40578404    4.25301936    0.00000000   -0.20978870   -0.38948561    0.00000000
    1    0.34573832    3.26898139    0.00000000    0.22967294    0.59358835    0.00000000
    1    1.35524823    4.47713852    0.00000000   -0.02005174   -0.20720376    0.00000000
    8   -0.33741013   -4.11403473    0.00000000   -0.18271414   -0.09415401    0.00000000
    1   -0.85379798   -4.40383216    0.77720649    0.09144082    0.04862752   -0.10223363
    1   -0.85379798   -4.40383216   -0.77720649    0.09144082    0.04862752    0.10223363
ATOMS    5
    8    0.38889271    4.15407120    0.00000000   -0.20571804   -0.39185562    0.00000000
    1    0.33139339    3.16988665    0.00000000    0.22550918    0.59321680    0.00000000
    1    1.33784465    4.38033035    0.00000000   -0.01996893   -0.20479697    0.00000000
    8   -0.32157345   -4.01508921    0.00000000   -0.18152721   -0.09322206    0.00000000
    1   -0.83739614   -4.30587991    0.77720332    0.09085250    0.04832892   -0.10192523
    1   -0.83739614   -4.30587991   -0.77720332    0.09085250    0.04832892    0.10192523
ATOMS    6
    8    0.37198180    4.05510611    0.00000000   -0.20147523   -0.39421914    0.00000000
    1    0.31714742    3.07077603    0.00000000    0.22117098    0.59270402    0.00000000
    1    1.32039240    4.28360315    0.00000000   -0.01988419   -0.20230223    0.00000000
    8   -0.30576588   -3.91612941    0.00000000   -0.18028252   -0.09218671    0.00000000
    1   -0.82099589   -4.20795835    0.77719961    0.09023548    0.04800203   -0.10159136
    1   -0.82099589   -4.20795835   -0.77719961    0.09023548    0.04800203    0.10159136
ATOMS    7
    8    0.35505078    3.95612408    0.00000000   -0.19700870   -0.39668913    0.00000000
    1    0.30300622    2.97164795    0.00000000    0.21664786    0.59215185    0.00000000
    1    1.30288987    4.18696114    0.00000000   -0.01983849   -0.19971660    0.00000000
    8   -0.28998953   -3.81715532    0.00000000   -0.17891378   -0.09099713    0.00000000
    1   -0.80459617   -4.11006907    0.77719644    0.08955655    0.04762551   -0.10124521
    1   -0.80459617   -4.11006907   -0.77719644    0.08955655    0.04762551    0.10124521
ATOMS    8
    8    0.33810865    3.85712353    0.00000000   -0.19230291   -0.39921247    0.00000000
    1    0.28890947    2.87250293    0.00000000    0.21209667    0.59164802    0.00000000
    1    1.28536247    4.09034771    0.00000000   -0.02000361   -0.19719079    0.00000000
    8   -0.27422587   -3.71816429    0.00000000   -0.17754885   -0.08969468    0.00000000
    1   -0.78819538   -4.01218509    0.77719273    0.08887935    0.04722496   -0.10089140
    1   -0.78819538   -4.01218509   -0.77719273    0.08887935    0.04722496    0.10089140
ATOMS    9
    8    0.32112524    3.75810022    0.00000000   -0.18739935   -0.40165473    0.00000000
    1    0.27505139    2.77333728    0.00000000    0.20708310    0.59066491    0.00000000
    1    1.26772394    3.99394171    0.00000000   -0.01990463   -0.19434358    0.00000000
    8   -0.25853472   -3.61915792    0.00000000   -0.17591255   -0.08814792    0.00000000
    1   -0.77180042   -3.91439053    0.77718850    0.08806671    0.04674066   -0.10045131
    1   -0.77180042   -3.91439053   -0.77718850    0.08806671    0.04674066    0.10045131
ATOMS   10
    8    0.30411696    3.65905416    0.00000000   -0.18222913   -0.40413793    0.00000000
    1    0.26132930    2.67415152    0.00000000    0.20184615    0.58952811    0.00000000
    1    1.25001979    3.89764473    0.00000000   -0.01984847   -0.19139325    0.00000000
    8   -0.24288536   -3.52013356    0.00000000   -0.17415121   -0.08639056    0.00000000
    1   -0.75540811   -3.81663884    0.77718374    0.08719133    0.04619681   -0.09996694
    1   -0.75540811   -3.81663884   -0.77718374    0.08719133    0.04619681    0.09996694
ATOMS   11
    8    0.28708329    3.55998323    0.00000000   -0.17685416   -0.40659479    0.00000000
    1    0.24775273    2.57494565    0.00000000    0.19639339    0.58815511    0.00000000
    1    1.23224474    3.80146416    0.00000000   -0.01978029   -0.18834261    0.00000000
    8   -0.22728099   -3.42109015    0.00000000   -0.17219550   -0.08435414    0.00000000
    1   -0.73901791   -3.71893160    0.77717898    0.08621828    0.04556821   -0.09943357
    1   -0.73901791   -3.71893160   -0.77717898    0.08621828    0.04556821    0.09943357
ATOMS   12
    8    0.27003638    3.46088743    0.00000000   -0.17107133   -0.40920281    0.00000000
    1    0.23423226    2.47571702    0.00000000    0.19091830    0.58691410    0.00000000
    1    1.21443952    3.70531535    0.00000000   -0.02009498   -0.18540477    0.00000000
    8   -0.21169197   -3.32202451    0.00000000   -0.17024050   -0.08209285    0.00000000
    1   -0.72262612   -3.62122806    0.77717368    0.08524426    0.04489317   -0.09889173
    1   -0.72262612   -3.62122806   -0.77717368    0.08524426    0.04489317    0.09889173
ATOMS   13
    8    0.25293655    3.36175829    0.00000000   -0.16511853   -0.41154175    0.00000000
    1    0.22105205    2.37646670    0.00000000    0.18482960    0.58479498    0.00000000
    1    1.19647661    3.60945546    0.00000000   -0.01996505   -0.18201785    0.00000000
    8   -0.19621089   -3.22293823    0.00000000   -0.16783419   -0.07936929    0.00000000
    1   -0.70624492   -3.52365100    0.77716786    0.08404408    0.04406695   -0.09821046
    1   -0.70624492   -3.52365100   -0.77716786    0.08404408    0.04406695    0.09821046
ATOMS   14
    8    0.23580498    3.26259581    0.00000000   -0.15883082   -0.41376850    0.00000000
    1    0.20806816    2.27719363    0.00000000    0.17845941    0.58224762    0.00000000
    1    1.17842003    3.51374851    0.00000000   -0.01988486   -0.17850995    0.00000000
    8   -0.18079173   -3.12382814    0.00000000   -0.16520242   -0.07622272    0.00000000
    1   -0.68986848   -3.42613479    0.77716151    0.08272935    0.04312678   -0.09745382
    1   -0.68986848   -3.42613479   -0.77716151    0.08272935    0.04312678    0.09745382
ATOMS   15
    8    0.21864112    3.16339682    0.00000000   -0.15225223   -0.41589668    0.00000000
    1    0.19529436    2.17789621    0.00000000    0.17181778    0.57924580    0.00000000
    1    1.16026291    3.41820349    0.00000000   -0.01981862   -0.17488577    0.00000000
    8   -0.16543925   -3.02469212    0.00000000   -0.16230796   -0.07256531    0.00000000
    1   -0.67349733   -3.32868261    0.77715410    0.08128051    0.04205098   -0.09659250
    1   -0.67349733   -3.32868261   -0.77715410    0.08128051    0.04205098    0.09659250
ATOMS   16
    8    0.20146192    3.06416343    0.00000000   -0.14510230   -0.41829515    0.00000000
    1    0.18259147    2.07856810    0.00000000    0.16521329    0.57644923    0.00000000
    1    1.14206716    3.32269392    0.00000000   -0.02035011   -0.17149305    0.00000000
    8   -0.15010741   -2.92552435    0.00000000   -0.15942880   -0.06844069    0.00000000
    1   -0.65712459   -3.23123096    0.77714670    0.07983396    0.04088983   -0.09573877
    1   -0.65712459   -3.23123096   -0.77714670    0.07983396    0.04088983    0.09573877
ATOMS   17
    8    0.18421445    2.96487819    0.00000000   -0.13783148   -0.41995713    0.00000000
    1    0.17039552    1.97922199    0.00000000    0.15778266    0.57189885    0.00000000
    1    1.12363910    3.22760134    0.00000000   -0.02016901   -0.16745265    0.00000000
    8   -0.13494225   -2.82633118    0.00000000   -0.15574927   -0.06336557    0.00000000
    1   -0.64077143   -3.13396559    0.77713823    0.07798355    0.03943825   -0.09461785
    1   -0.64077143   -3.13396559   -0.77713823    0.07798355    0.03943825    0.09461785
ATOMS   18
    8    0.16692730    2.86554320    0.00000000   -0.13014894   -0.42133059    0.00000000
    1    0.15849274    1.87985102    0.00000000    0.15001734    0.56645492    0.00000000
    1    1.10507345    3.13272837    0.00000000   -0.02004934   -0.16327205    0.00000000
    8   -0.11987341   -2.72710520    0.00000000   -0.15164625   -0.05736945    0.00000000
    1   -0.62442780   -3.03678911    0.77712870    0.07591359    0.03775858   -0.09333405
    1   -0.62442780   -3.03678911   -0.77712870    0.07591359    0.03775858    0.09333405
ATOMS   19
    8    0.14959940    2.76615317    0.00000000   -0.12206737   -0.42236493    0.00000000
    1    0.14690959    1.78045465    0.00000000    0.14193266    0.55995608    0.00000000
    1    1.08635805    3.03809194    0.00000000   -0.01998702   -0.15896519    0.00000000
    8   -0.10491093   -2.62784324    0.00000000   -0.14709007   -0.05026330    0.00000000
    1   -0.60809581   -2.93970841    0.77711812    0.07360590    0.03581867   -0.09187179
    1   -0.60809581   -2.93970841   -0.77711812    0.07360590    0.03581867    0.09187179
ATOMS   20
    8    0.13225245    2.66671129    0.00000000   -0.11308572   -0.42373200    0.00000000
    1    0.13541798    1.68101488    0.00000000    0.13405175    0.55354854    0.00000000
    1    1.06759078    2.94349362    0.00000000   -0.02098828   -0.15517162    0.00000000
    8   -0.08997491   -2.52853577    0.00000000   -0.14255560   -0.04204539    0.00000000
    1   -0.59176118   -2.84262243    0.77710701    0.07128893    0.03370023   -0.09037575
    1   -0.59176118   -2.84262243   -0.77710701    0.07128893    0.03370023    0.09037575
ATOMS   21
    8    0.11482135    2.56718580    0.00000000   -0.10424357   -0.42342358    0.00000000
    1    0.12471802    1.58157458    0.00000000    0.12509153    0.54349158    0.00000000
    1    1.04846739    2.84951866    0.00000000   -0.02073769   -0.15037923    0.00000000
    8   -0.07531194   -2.42919549    0.00000000   -0.13654708   -0.03168908    0.00000000
    1   -0.57546517   -2.74582166    0.77709378    0.06821840    0.03100016   -0.08834260
    1   -0.57546517   -2.74582166   -0.77709378    0.06821840    0.03100016    0.08834260
ATOMS   22
    8    0.09734211    2.46758093    0.00000000   -0.09492406   -0.42227812    0.00000000
    1    0.11448268    1.48211418    0.00000000    0.11581991    0.53119473    0.00000000
    1    1.02913020    2.75587497    0.00000000   -0.02059141   -0.14545647    0.00000000
    8   -0.06080932   -2.32981075    0.00000000   -0.12976550   -0.01913517    0.00000000
    1   -0.55919033   -2.64916008    0.77707896    0.06473053    0.02783751   -0.08597350
    1   -0.55919033   -2.64916008   -0.77707896    0.06473053    0.02783751    0.08597350
ATOMS   23
    8    0.07981524    2.36788715    0.00000000   -0.08522594   -0.42009606    0.00000000
    1    0.10475905    1.38263631    0.00000000    0.10633049    0.51609654    0.00000000
    1    1.00955753    2.66259059    0.00000000   -0.02051743   -0.14044522    0.00000000
    8   -0.04648714   -2.23037628    0.00000000   -0.12203196   -0.00375604    0.00000000
    1   -0.54294036   -2.55264878    0.77706203    0.06072242    0.02410039   -0.08316705
    1   -0.54294036   -2.55264878   -0.77706203    0.06072242    0.02410039    0.08316705
ATOMS   24
    8    0.06226561    2.26811295    0.00000000   -0.07401145   -0.41831969    0.00000000
    1    0.09516084    1.28309494    0.00000000    0.09749263    0.50030045    0.00000000
    1    0.98991289    2.56934378    0.00000000   -0.02245198   -0.13655953    0.00000000
    8   -0.03220201   -2.13087089    0.00000000   -0.11436498    0.01463269    0.00000000
    1   -0.52668616   -2.45612054    0.77704457    0.05666789    0.01997304   -0.08022689
    1   -0.52668616   -2.45612054   -0.77704457    0.05666789    0.01997304    0.08022689
ATOMS   25
    8    0.04462232    2.16819481    0.00000000   -0.06375292   -0.41251525    0.00000000
    1    0.08687234    1.18361125    0.00000000    0.08747260    0.47588415    0.00000000
    1    0.96969092    2.47707277    0.00000000   -0.02210759   -0.13106259    0.00000000
    8   -0.01839366   -2.03133005    0.00000000   -0.10386808    0.03844242    0.00000000
    1   -0.51051399   -2.36005481    0.77702287    0.05112800    0.01462564   -0.07613121
    1   -0.51051399   -2.36005481   -0.77702287    0.05112800    0.01462564    0.07613121
ATOMS   26
    8    0.02693246    2.06814278    0.00000000   -0.05337440   -0.40415248    0.00000000
    1    0.07936967    1.08413868    0.00000000    0.07760621    0.44484736    0.00000000
    1    0.94911546    2.38532565    0.00000000   -0.02178392   -0.12550495    0.00000000
    8   -0.00487637   -1.93172889    0.00000000   -0.09159149    0.06844117    0.00000000
    1   -0.49438890   -2.26421926    0.77699800    0.04457180    0.00818446   -0.07112613
    1   -0.49438890   -2.26421926   -0.77699800    0.04457180    0.00818446    0.07112613
ATOMS   27
    8    0.00920027    1.96793677    0.00000000   -0.04291742   -0.39225009    0.00000000
    1    0.07274967    0.98468886    0.00000000    0.06823936    0.40503061    0.00000000
    1    0.92814629    2.29415375    0.00000000   -0.02167583   -0.12004753    0.00000000
    8    0.00830967   -1.83206105    0.00000000   -0.07732043    0.10637116    0.00000000
    1   -0.47832044   -2.16863931    0.77696942    0.03683716    0.00044792   -0.06500866
    1   -0.47832044   -2.16863931   -0.77696942    0.03683716    0.00044792    0.06500866
ATOMS   28
    8   -0.00855997    1.86759581    0.00000000   -0.02963748   -0.37889432    0.00000000
    1    0.06631011    0.88514167    0.00000000    0.06107075    0.35956838    0.00000000
    1    0.90707129    2.20301148    0.00000000   -0.02592010   -0.11736920    0.00000000
    8    0.02143855   -1.73227731    0.00000000   -0.06312543    0.15316884    0.00000000
    1   -0.46224775   -2.07301597    0.77694032    0.02880613   -0.00823685   -0.05827241
    1   -0.46224775   -2.07301597   -0.77694032    0.02880613   -0.00823685    0.05827241
ATOMS   29
    8   -0.02637206    1.76699185    0.00000000   -0.02059700   -0.35172203    0.00000000
    1    0.06220052    0.78584213    0.00000000    0.05377647    0.28893162    0.00000000
    1    0.88499773    2.11347367    0.00000000   -0.02532486   -0.11174717    0.00000000
    8    0.03365672   -1.63247665    0.00000000   -0.04238530    0.21412063    0.00000000
    1   -0.44635921   -1.97819592    0.77690116    0.01726534   -0.01979153   -0.04850626
    1   -0.44635921   -1.97819592   -0.77690116    0.01726534   -0.01979153    0.04850626
ATOMS   30
    8   -0.04418522    1.66614183    0.00000000   -0.01345370   -0.30697498    0.00000000
    1    0.05953506    0.68667701    0.00000000    0.04910884    0.19297500    0.00000000
    1    0.86229868    2.02480953    0.00000000   -0.02481223   -0.10645657    0.00000000
    8    0.04529385   -1.53260507    0.00000000   -0.01701484    0.28827991    0.00000000
    1   -0.43058921   -1.88379180    0.77685618    0.00308597   -0.03391168   -0.03608991
    1   -0.43058921   -1.88379180   -0.77685618    0.00308597   -0.03391168    0.03608991
ATOMS   31
    8   -0.06197033    1.56500605    0.00000000   -0.01019089   -0.22467298    0.00000000
    1    0.05852433    0.58769974    0.00000000    0.04861719    0.06004461    0.00000000
    1    0.83888895    1.93711221    0.00000000   -0.02458347   -0.10184867    0.00000000
    8    0.05624940   -1.43266259    0.00000000    0.01526171    0.36885977    0.00000000
    1   -0.41496367   -1.78985812    0.77680379   -0.01455227   -0.05119137   -0.02008399
    1   -0.41496367   -1.78985812   -0.77680379   -0.01455227   -0.05119137    0.02008399
ATOMS   32
    8   -0.07978666    1.46362738    0.00000000   -0.00683663   -0.05969014    0.00000000
    1    0.05779460    0.48856372    0.00000000    0.05653593   -0.11314750    0.00000000
    1    0.81531253    1.84941488    0.00000000   -0.03495797   -0.10491696    0.00000000
    8    0.06710917   -1.33251531    0.00000000    0.05301424    0.41903631    0.00000000
    1   -0.39933284   -1.69582549    0.77674928   -0.03387778   -0.07064085   -0.00106465
    1   -0.39933284   -1.69582549   -0.77674928   -0.03387778   -0.07064085    0.00106465
ATOMS   33
    8   -0.09759929    1.36194126    0.00000000   -0.02138297    0.35272411    0.00000000
    1    0.05770993    0.38931234    0.00000000    0.07737382   -0.36128277    0.00000000
    1    0.79143659    1.76192128    0.00000000   -0.05466451   -0.11653646    0.00000000
    8    0.07770223   -1.23214102    0.00000000    0.11219824    0.31162055    0.00000000
    1   -0.38374276   -1.60179708    0.77669372   -0.05676229   -0.09326272    0.02311199
    1   -0.38374276   -1.60179708   -0.77669372   -0.05676229   -0.09326272   -0.02311199
ATOMS   34
    8   -0.11533095    1.25984079    0.00000000   -0.11674879    1.54571305    0.00000000
    1    0.05945727    0.29017368    0.00000000    0.11691279   -0.74942857    0.00000000
    1    0.76681293    1.67541142    0.00000000   -0.08112172   -0.13632192    0.00000000
    8    0.08749413   -1.13157252    0.00000000    0.25396163   -0.41956241    0.00000000
    1   -0.36833471   -1.50820684    0.77663234   -0.08650195   -0.12020007    0.05599310
    1   -0.36833471   -1.50820684   -0.77663234   -0.08650195   -0.12020007   -0.05599310
ATOMS   35
    8   -0.13297213    1.15725030    0.00000000   -0.54023834    5.40513478    0.00000000
    1    0.06321496    0.19113450    0.00000000    0.18686942   -1.38946187    0.00000000
    1    0.74136216    1.58994352    0.00000000   -0.11806252   -0.16841421    0.00000000
    8    0.09640547   -1.03075848    0.00000000    0.72305650   -3.54493673    0.00000000
    1   -0.35312352   -1.41506534    0.77656513   -0.12581253   -0.15116098    0.10141331
    1   -0.35312352   -1.41506534   -0.77656513   -0.12581253   -0.15116098   -0.10141331
