ATOMS
    8   -0.13297213    1.15725030    0.00000000   -0.54023834    5.40513478    0.00000000
    1    0.06321496    0.19113450    0.00000000    0.18686942   -1.38946187    0.00000000
    1    0.74136216    1.58994352    0.00000000   -0.11806252   -0.16841421    0.00000000
    8    0.09640547   -1.03075848    0.00000000    0.72305650   -3.54493673    0.00000000
    1   -0.35312352   -1.41506534    0.77656513   -0.12581253   -0.15116098    0.10141331
    1   -0.35312352   -1.41506534   -0.77656513   -0.12581253   -0.15116098   -0.10141331
