 BEGIN_INFO
   #
   # This is a XCRYSDEN-Structure-File
   #
   # aimed for Visualization of geometry
   #
   # Launch as: xcrysden --xsf .HICOLM.XSF
   #
   #
 END_INFO
 # estrutura final
CRYSTAL
PRIMVEC
      20.95893058       0.00000000       0.00000000
       0.00000000      20.95893058       0.00000000
       0.00000000       0.00000000      20.95893058
PRIMCOORD
  927    1
    8   -6.80801227   -8.26815060   -9.18245921     12.17552530   -3.79554334   20.83605287      4.36090105    4.31896256    4.38164964
    1   -6.22924662   -8.24988280   -8.37187728     -6.41295639   -6.49163628  -17.75637747     17.00316485   16.99332260   16.54920728
    1   -7.38496262   -7.51032312   -8.99816967     -5.89650083    9.53142790   -4.03129979     17.00779666   17.65821289   17.09691448
    8   -1.83816874   -5.06924900    9.75842170      8.37235388    8.98809152   17.37471891      4.35119338    4.35260012    4.37239532
    1   -1.18020911   -5.39630908   10.42115862     -5.61668481   -0.91040095  -14.60728725     17.03728001   17.20795658   16.66593713
    1   -1.74355943   -5.67957071    9.01427489      6.76240501   -7.69272536   -3.36611082     17.52876394   16.95699887   17.14052317
    8   -1.35008419   -0.38277514   -3.66754419     37.62096133  -10.75529320  -17.05595631      4.42770180    4.30252503    4.28547672
    1   -1.07889467    0.13895785   -4.46428084    -12.21672828   -0.23233465   14.18411681     16.74842197   17.24139169   17.84360730
    1   -2.23954518   -0.11569761   -3.49080335    -29.61801457   13.51832778    1.44414551     16.03248432   17.80763160   17.31248219
    8    8.26907701   -4.20079521    0.03243310    -15.83136216  -14.08253607   34.27054319      4.28812118    4.29357742    4.41966768
    1    7.55126889   -4.26344056    0.73419058     25.29480186    4.37358357  -25.42212437     18.30848316   17.43495750   16.19462895
    1    8.92488236   -4.86889306    0.34883509     -8.97819139   10.89693583   -5.22501282     16.88369561   17.70083081   17.03895770
    8    0.09124406    1.15878272   -0.40027336      2.90535770   28.88800756   -6.51751788      4.33592915    4.40462857    4.31367599
    1    0.45547847    1.99172420   -0.79492612     -4.07149261  -15.69405270    6.23252024     17.09202385   16.61994184   17.50449698
    1   -0.85280808    1.40279585   -0.33743210     -2.96692181   -8.13518465    1.35184032     17.14815913   16.91193443   17.30797280
    8   -6.77003292    8.30554502   -4.73807953     52.61742409   31.07755176   31.15097883      4.46566439    4.40908400    4.40999606
    1   -5.94264095    8.76455535   -4.36824068    -43.70336768   -7.49883755  -13.75934868     15.47458307   16.95719054   16.69618750
    1   -6.33665473    7.53574812   -5.11014186     -8.31410773  -19.77670554  -16.17452858     16.90298653   16.45000938   16.59070857
    8   -8.24463689   -1.11118133   -4.55856505     27.96108099   21.50892042   46.55987149      4.40185369    4.38547552    4.44900194
    1   -9.01214114   -0.91827226   -5.10116218    -19.19194683    4.14810130   -8.35256049     16.47987973   17.41892571   16.92389947
    1   -8.36857217   -0.50237861   -3.75050143     -2.76660238  -25.84129289  -38.74402032     17.13509337   16.19954964   15.66921412
    8   -7.12741711   -3.25368892    3.80547914     25.11479040    8.67381588  -21.67177592      4.39569088    4.35013499    4.27298376
    1   -7.04632152   -2.27278768    3.89343560     -2.33686930  -10.95048918    1.99101356     17.16318823   16.82935373   17.33461407
    1   -6.46535012   -3.45653099    3.08489809    -20.45297220    4.47381166   20.79159710     16.39952665   17.44713560   18.12339767
    8    6.89585054    3.39817758   -2.02271019      0.01798963   11.72599247    1.48900437      4.32823436    4.35876388    4.33145451
    1    6.78216740    4.32001597   -1.69458928      1.77174326  -12.27244904   -1.25599604     17.33412467   16.77016282   17.21982446
    1    7.67038123    3.06651359   -1.50128778     -7.36130766    0.97070224   -5.54064284     16.96894114   17.29809401   17.04367819
    8    7.19319784   -9.82312427    2.64940892      8.32355404   -4.77782156   19.86141809      4.35176143    4.31653517    4.37927075
    1    6.94855875   -9.09566080    3.24285521      1.75195323    2.34444693    6.16934744     17.31739278   17.37404622   17.52745389
    1    6.78536477   -9.54516281    1.83278487     -8.71786135    2.88365948  -26.34523370     16.90139044   17.36534613   16.18146479
    8  -10.19427516   -7.03914235   -6.81179670     37.34987210   16.80628120   24.69561338      4.42546106    4.37287417    4.39230101
    1   -9.36511627   -6.97349827   -7.32562430     -4.37414670    3.13606357    6.24208499     17.08433189   17.38658018   17.51349628
    1   10.17606436   -7.35787174   -7.46885574    -29.23143886  -16.76964807  -28.68944035     16.06071826   16.57043849   16.09726697
    8   -4.42903407    3.13349247    4.39296145      6.54973164    6.44003870  -11.11402305      4.34627768    4.34534115    4.30174744
    1   -3.54771369    2.87135957    4.05636423     -1.34313208    4.18340175   -0.33341807     17.20591364   17.42846248   17.23574655
    1   -4.77267316    2.29341640    4.72012007     -5.70633678   -6.11729825    6.93839802     17.02165360   17.02188701   17.53423065
    8    0.23322780   -2.33361730   -7.18921261    -27.98196467   22.78040685   27.85193012      4.25758661    4.38867482    4.40256427
    1    0.59570866   -3.21510386   -7.21737308      2.42356364  -21.42571195    3.08737090     17.34739877   16.37633378   17.37993311
    1   -0.28294529   -2.32094383   -6.32981358     20.24214248   -9.20739921  -24.75539188     18.09004063   16.87232065   16.23197360
    8    7.64178646    1.07821855   -8.63102319     14.35868554    4.23371038    8.92902462      4.36540590    4.33884531    4.35139407
    1    7.11971121    0.45354436   -9.16211045    -10.15169357    0.77619378   -2.28050249     16.86390953   17.30887903   17.18492233
    1    7.07153852    1.88088493   -8.57518658     -2.02742073   -7.59453578   -8.08238208     17.17123972   16.94888125   16.92329404
    8    7.51443886   -6.31054064   -5.56730147     28.15380732   -1.67663306   70.87457164      4.40108084    4.32483582    4.51379343
    1    8.24840902   -6.08950943   -4.90492348    -41.39917162  -15.00759271  -19.33240898     15.56897940   16.64320541   16.47054380
    1    7.90584595   -6.02413015   -6.35630256     11.75065328   12.77715994  -47.12937234     17.74674077   17.78449864   15.30054816
    8   -8.11061533  -10.47042819  -10.16714740      0.65694031    9.94188735   37.66049560      4.33065027    4.35336983    4.42637780
    1   -7.72968060   -9.61017111   -9.82858786     -2.33968016  -19.02515243  -15.71861753     17.17241608   16.50036347   16.60936112
    1   -8.04836276  -10.41878132    9.84288343      4.96558528    8.57877040  -23.22839455     17.45888760   17.61233007   16.31113788
    8   -9.15595859   -9.34795453    1.64999832     42.32100907   54.62926947  -14.11727991      4.44044399    4.47036899    4.29253908
    1   -9.75421346   -9.96286955    1.99242720    -40.91091968  -40.27446054   19.59910474     15.56747734   15.59623828   18.05819153
    1   -9.35789279   -8.55691109    2.19254579      0.70281129   -7.34849250   -7.35885361     17.27461423   16.97243974   16.96605421
    8   -5.28881654    9.78849099    1.32627264    -11.08243316   31.70688716   13.34589540      4.30142778    4.41067807    4.36400213
    1   -4.92860900    9.50787463    0.46486635      1.52501420  -17.50404960   -4.00204444     17.31054050   16.54207358   17.10327916
    1   -5.58493073    8.98431910    1.77542719      6.85595477  -13.85883768  -10.07306765     17.53990879   16.69854385   16.83378885
    8    8.91432617    2.22238733   -0.83929574     38.59712398   18.77917709   11.90495657      4.42884826    4.37656462    4.35973491
    1    9.82383917    2.56153609   -0.54357727    -37.37574781  -14.53917566  -10.49922299     15.73735754   16.65942808   16.82763725
    1    9.10270021    1.34329956   -1.19986616      6.72865850   -5.02602399    2.04029771     17.52944679   17.07250655   17.34970118
    8    5.28143323    9.31508502    7.47050891     45.00990487  -23.86536590    4.55962803      4.44634171    4.26602013    4.33925107
    1    5.20801832    8.69752208    6.73955452    -21.23445441   -1.97064599  -14.48443552     16.37204292   17.19954131   16.68268575
    1    6.17586050    8.97917667    7.77512955    -24.14536027   24.43490318   12.39686358     16.27140882   18.26457427   17.77842984
    8   -3.64445219    0.01986230    3.49725670      3.65015648   -3.27340116   -6.00603748      4.33896710    4.31851302    4.31328861
    1   -4.10506298    0.27804841    4.30066841    -11.68630030   -4.29383531    9.49317552     16.76435529   17.08946443   17.66219156
    1   -3.12163365    0.82473698    3.32067924      7.30666258    1.41510618   -5.73678314     17.56934382   17.34293601   17.01855474
    8   -9.95495883   -7.11588847    3.59252987      6.55537894   -6.82611867   60.67574177      4.34508995    4.31215693    4.48679778
    1   10.27829474   -7.11085705    4.27323123      7.44144956    2.47668116  -29.98299884     17.57049104   17.35667350   16.01130431
    1   -9.17944201   -7.15305091    4.22431561    -11.30005528    2.02876717  -30.18365604     16.80700950   17.33723118   16.02738663
    8   -4.17694490    8.91980870   -8.41537923     42.84388632   -0.57014442   26.53444285      4.43925150    4.32818237    4.39867551
    1   -3.75397489    9.52603798   -9.06162767    -17.77305533   -3.97396877   -7.71562463     16.52550002   17.09384425   16.92913277
    1   -5.06721248    8.76448464   -8.71340972    -23.45072702    2.90802812  -22.11509635     16.31276948   17.37386792   16.35145578
    8    3.74462216   -8.85619573   -7.03438770     46.93892873   -1.65391832   27.57024144      4.45127534    4.32554669    4.39976444
    1    4.03367504   -9.08967168   -7.92351908     -0.82702937   -0.88122261  -11.23047019     17.21346044   17.22174672   16.80932120
    1    4.62455097   -8.90518815   -6.52482306    -42.66326044    4.13705770  -16.70292909     15.51123641   17.42371516   16.57394891
    8   -9.15216634    4.22767597    6.56590878     36.11654763   16.03935921   -9.57840546      4.42184158    4.37181924    4.30360329
    1   -9.54160639    4.44166104    5.71607945     -2.43025840    3.55646338  -16.08133295     17.17398159   17.39921483   16.60651260
    1   -9.86652726    3.80369268    6.98904142    -34.91055946  -21.61587705   24.49261981     15.82317335   16.36085201   18.27112899
    8    5.92922921   -9.04697928    0.30036824     11.80086719   45.00900198   13.74532909      4.35976083    4.44520538    4.36365795
    1    5.63413400   -9.70372384   -0.34311948     -1.00897145   -0.93962355  -17.25692961     17.22346304   17.23911446   16.57200600
    1    6.14088767   -8.20568243   -0.22729483     -4.42633434  -40.22417121    7.98465912     17.07459084   15.59603567   17.58636720
    8    8.65952194   -4.72350514   -7.59702332      6.64151299   12.57249716    8.28919043      4.34494590    4.36139881    4.34960149
    1    9.29450959   -4.34957203   -8.22809492     -0.42193710   -7.11993590   -6.22415861     17.24885968   16.96545489   16.99711586
    1    9.07954758   -4.47443376   -6.74441176     -4.72679458   -6.20881278   -7.27789181     17.08366023   17.01193861   16.98133470
    8   -0.00628783    3.49136519    7.64029392     25.70527865   34.41323672    1.67908902      4.39606408    4.41726223    4.33267716
    1    0.32524156    4.29746095    8.15856440    -13.94798527  -26.71238224  -13.70167589     16.68394286   16.17469838   16.71276716
    1   -0.59645621    3.05320165    8.26500269     -9.60691660   -7.04308240   11.92649056     16.86196316   16.97132499   17.74735347
    8   -8.72214499   -4.93626964   -0.39322450    -10.55298712   21.58282215  -25.87168732      4.30082011    4.38722056    4.26222223
    1   -7.90657098   -5.32613796   -0.08706385     23.16679308  -15.66875121    7.69000681     18.23317234   16.59102093   17.58155659
    1   -9.36155489   -5.27373791    0.22985889    -16.55724409   -6.89828786   14.75318286     16.57332333   16.96818183   17.86014644
    8    8.07424389   -2.51579391   -2.27649901     36.08584357    6.72830660   -7.29709722      4.42233529    4.34789874    4.31095975
    1    7.13305631   -2.47119856   -2.36521673    -33.06018882   -3.28906531    1.97076137     15.90694860   17.11789934   17.33171895
    1    8.21282345   -3.15268696   -1.55786192     -5.53081970   -5.38023929    5.50548320     17.02924664   17.02535599   17.48539400
    8    6.02452392    7.43816583    5.54445332     46.10347314    2.26388311    4.17567162      4.44849989    4.33626055    4.33989916
    1    7.00894227    7.48314599    5.65141129    -19.74478521   -6.31097944   17.13935530     16.46344356   16.99357996   17.96647901
    1    6.00805291    7.77989108    4.66011824    -23.40213068    8.13199537  -27.93609129     16.28382922   17.58503628   16.10736306
    8    1.10339303   -9.05917629    1.85447054      5.77266434   36.17551427    7.13459930      4.34394165    4.42184701    4.34783021
    1    1.90894509   -8.56897564    1.56721622     -7.94356907  -17.71033388    0.21962891     16.94222854   16.54004593   17.26167662
    1    0.72750513   -8.40642467    2.50075770     -0.17229276  -19.35536612   -5.93536940     17.24648013   16.47223281   17.02012857
    8    6.24177659   -5.46123980   -8.47973693     18.22984910   23.47717615   34.68558112      4.37552144    4.38991683    4.41850797
    1    7.10001997   -5.09820658   -8.11202844    -20.99655085  -11.40389463   -8.74795493     16.41854997   16.79442877   16.90155996
    1    6.50237180   -5.76282384   -9.33143320      6.92418079  -13.10055448  -31.12023773     17.53671986   16.71737641   15.98319567
    8    4.96202889   -5.88005718    3.17384649     15.08269041   39.20977275    0.03451828      4.36893221    4.43017592    4.32984201
    1    5.62703599   -5.19656285    2.80524876    -26.49290040  -32.05624261   13.01694553     16.16375222   15.94398496   17.79239787
    1    4.39728858   -5.31224233    3.77264532     10.45071184  -16.82586715  -16.83243867     17.68516776   16.57076189   16.56123063
    8    8.65263878   -2.40544372   -4.94071487     -8.19807647    8.66663522    4.59014138      4.30927056    4.35241144    4.34025448
    1    8.48533716   -2.40148701   -3.95330245     13.86048890  -13.64937379  -21.03271902     17.82752176   16.68359311   16.40086141
    1    9.23273844   -3.17685155   -5.12951360     -5.16835899    1.74004817   20.56199072     17.03154034   17.33265216   18.11268731
    8    0.10067220   -6.27500272   -9.59194504     38.94632780   13.53669811    5.06266741      4.42970223    4.36367070    4.34093207
    1    1.01083185   -5.96043757   -9.89903965    -33.71407621   -8.84684711   -1.79423858     15.87439107   16.89730412   17.18459997
    1    0.15752380   -5.96336431   -8.66567845    -14.72163776   -3.77463035   -1.13682278     16.65501912   17.11227529   17.23693418
    8    4.23477393   -2.95108048    0.65351815      6.64028334   17.69113811   13.14346762      4.34631276    4.37433104    4.36187538
    1    4.06110957   -2.06809853    0.20455132      8.13004209  -23.04954820   28.19352280     17.59468598   16.30561127   18.43236169
    1    4.59150942   -2.71270184    1.56773865    -16.31552426    4.04357631  -39.07297188     16.58848441   17.44213971   15.66205166
    8    0.51348451   -1.04666747   -1.87178139     34.06176913    0.49007070   13.24460822      4.41728377    4.32927639    4.36222953
    1   -0.22968863   -0.84948437   -2.44566914    -16.40057616    6.58631705  -12.43685735     16.59602382   17.52196574   16.75553916
    1    0.65550276   -0.18821709   -1.40489354    -10.17200823  -11.11650799   -4.75512171     16.83555006   16.82793157   17.07344567
    8  -10.29240237    8.22735919   -6.99141932     13.39353489  -16.81544571   53.24206324      4.36349864    4.28371778    4.46726353
    1  -10.27522410    8.83853000   -7.70249437     -6.07227438   26.65109366  -33.56081252     17.00521743   18.36598907   15.86543626
    1   -9.84842230    8.75223401   -6.27148427    -12.85323869  -16.69189929  -13.81775568     16.74092734   16.59200426   16.70467551
    8    5.09209862    0.15073618   -4.80802256      2.24831832    4.04144170    4.24055428      4.33499305    4.33804522    4.34128365
    1    4.33163222   -0.34754800   -4.45263174      3.06742199   -3.42974838   -4.73098983     17.39680373   17.13265399   17.05068831
    1    5.64633547   -0.55173086   -5.22000021    -10.31589427    2.11466098    2.55158467     16.82282315   17.35879015   17.36317511
    8    9.63834823    6.02223803   -0.09746130     -0.19812071   12.98736532   -0.75878494      4.32784094    4.36186935    4.32557880
    1   10.06812515    6.64675076    0.53112836     -6.27798926   -0.62529647   -3.48732153     17.01687506   17.24908566   17.14222966
    1    9.95233764    5.17252450    0.22311732      4.53299164  -14.36510369    2.46310208     17.44398307   16.66605486   17.36017628
    8   -9.21953569    5.01705580   -6.01566130     15.17672172   -7.91706781   -1.68675744      4.36856570    4.30956912    4.32314460
    1   -8.79643035    4.98475927   -5.13814641      3.69276015   -3.90553316    0.23500581     17.41721610   17.09240564   17.29814370
    1  -10.07199839    5.36277768   -5.79900709    -21.05840913    9.12813262    2.87736601     16.38631950   17.62875779   17.37611605
    8   -6.30275881  -10.09482594   -2.10581551      3.12704954   17.31165431   18.05137233      4.33613666    4.37364857    4.37494377
    1   -5.80550452   10.31790514   -2.70117956      6.95747088  -16.77744224  -21.26554368     17.53647106   16.56835509   16.38381082
    1   -5.55740134   -9.75005169   -1.56171898    -13.43770292    4.63678558    1.48945286     16.73300234   17.45860995   17.33715547
    8   -2.34468853   -9.79826720    5.14707615     -3.42349257  -14.01714843   51.50134633      4.31827984    4.29279416    4.46305854
    1   -2.69935943   -9.74098129    4.27992065    -17.13570241    0.95510683  -40.91629194     16.56353149   17.29482769   15.57850371
    1   -3.10213507  -10.19024806    5.64884645     12.84153396    6.65765257   -5.99161502     17.80787100   17.53770169   17.00569242
    8   -1.14474042   -2.87286166   -4.70382787      0.28651763   -4.12681746  -11.61951536      4.33065556    4.31764218    4.29702656
    1   -1.28151486   -2.02165250   -4.20790369     11.07122517  -23.22683867    5.86809784     17.71299594   16.31035398   17.52387182
    1   -0.74283234   -3.53468547   -4.07090340     -9.19273629   28.80136670   -0.53325573     16.87482962   18.45212746   17.24575441
    8    2.48241392    6.43434742   -0.42879134      2.88221268   17.90908295   27.63704936      4.33707693    4.37438128    4.40033657
    1    2.53175206    6.57013463   -1.36100832      0.90389916   -0.33704563  -27.01897973     17.28949727   17.23925761   16.15230503
    1    2.70259266    7.34176791   -0.08459392     -6.02005804  -14.83487541   -3.86120265     17.01294330   16.67451068   17.10263625
    8    2.29932860   -7.35712382    5.29765622      7.18287902   -5.42718058    4.08100150      4.34577757    4.31416748    4.33951873
    1    1.49395334   -7.32979519    4.72108743     12.44309344    7.54176840    4.67796852     17.80037817   17.56445736   17.46985899
    1    2.74776796   -6.49762824    5.17083454    -14.35270688   -7.32498340   -4.72595980     16.67243341   16.97741455   17.05245105
    8   -5.33442124    0.84508518    5.54235363      7.46940961   -5.59351294    6.61993331      4.35011296    4.31538375    4.34613101
    1   -5.96367861    1.43566210    6.01185398     -3.57397864   -2.24504959    1.76316307     17.09791686   17.16435780   17.33650837
    1   -5.07967003    0.20526687    6.25085952     -4.74009298    3.04598634   -6.13795647     17.05594345   17.37673023   17.00774613
    8   -7.95913988    7.11092236    0.54150322     18.26520138   -1.83784170    7.35668837      4.37560466    4.32432942    4.34665117
    1   -8.72853324    7.33168235    1.10774354     -1.24552350    2.43558187   -5.18212772     17.20768043   17.35749845   17.04650498
    1   -7.19151759    7.32253181    1.10913013    -10.00373491   -1.31728904   -2.71758741     16.86476629   17.21092318   17.17356320
    8   -1.06046924    4.04205651   -4.93885762      2.66455085   -4.96912283   32.63587492      4.33434396    4.31561215    4.41339154
    1   -1.57609163    3.70006347   -4.14926494      4.79801741    1.14662093  -24.61297006     17.46171805   17.30630191   16.23493178
    1   -0.28911523    4.45482586   -4.46420767     -7.57685658   -1.37513775  -17.20272412     16.96873663   17.21235991   16.56820976
    8    8.66876840    8.29731214    5.81343948     13.25673986   46.02770241    6.02664990      4.36454390    4.44793621    4.34410287
    1    8.96183755    9.26783709    5.70172220    -13.41352587  -42.33770528   -0.10162768     16.70246685   15.52284418   17.25761068
    1    8.38147557    8.29316163    6.75213747      1.23936597   -4.65760933   -3.51903017     17.30223419   17.07057136   17.12480370
    8    9.57697629    2.91754844    7.53065168     -8.14356526   10.47152107   23.91083130      4.30700287    4.35725428    4.38996076
    1    9.10670814    2.84738761    6.69193358    -12.75881499    0.73181825  -10.16555138     16.74853019   17.28366866   16.86084369
    1    8.86950208    3.21513589    8.17490386     18.21930547   -6.31192225  -16.18178431     18.01268858   16.99294148   16.59012326
    8   -8.66660193   -2.91563559    8.16678431     16.07522408   55.88475344   35.95521580      4.37081335    4.47345568    4.42300093
    1   -9.48149320   -3.12805887    8.64144673    -11.55646532  -12.57743930   -3.95606842     16.78740232   16.74533601   17.08859780
    1   -8.55304535   -3.58411778    7.52672739     -3.79436739  -38.87503188  -31.36485204     17.10249920   15.66870165   15.96813258
    8    8.36761270   -5.40323748    7.73396418     -1.29676382    8.44935833  -14.55501610      4.32683206    4.35163625    4.28960967
    1    8.59092529   -5.81103482    6.87982670     11.02054216  -18.38593814    7.31877103     17.70833199   16.49686878   17.58582521
    1    7.84145141   -4.66711808    7.38475706     -9.77714861   11.21928092   15.68165933     16.84773564   17.71970833   17.91254147
    8    9.11112036    1.52747383   -6.38138178     22.57590591   15.10111704   44.85190553      4.38729635    4.36901836    4.44468703
    1    8.55785059    1.36678487   -7.11582879    -28.10442729  -10.62631471  -40.35164644     16.11569540   16.81501378   15.60459013
    1    8.48312232    1.90291104   -5.72748651      7.40860588    1.10631591   -3.00507279     17.55962732   17.30377822   17.14068324
    8   -5.09175261    0.44401347   -7.93529911    -23.08491765   30.75980060   12.66116101      4.26959807    4.41056112    4.36110581
    1   -5.73192105    1.09811117   -7.51603592     17.55777399  -23.30219406   -4.22100700     17.97818918   16.29239077   17.08576201
    1   -5.24275574    0.65638745   -8.87175570     -0.23165621   -7.59865743   -7.19036967     17.24885694   16.93029867   16.97735541
    8   -2.30634927  -10.32079657   -2.66869417     -5.16646712   30.69219323    4.66983814      4.31670629    4.40853027    4.34217039
    1   -2.95252707  -10.07092447   -1.94844732     18.90771492    1.31785030  -23.23143971     18.03527892   17.31642596   16.29178229
    1   -2.03108363   -9.43690305   -3.06716288    -12.55510981  -28.01278052   19.95939451     16.73281739   16.10880132   18.08020861
    8   -7.73109422   -7.25932907    5.38623476    -29.24712470   20.85237794  -32.21312368      4.25274964    4.38566546    4.24464565
    1   -6.99641311   -7.36977579    4.75536845      9.57131121   -6.31909652    9.35225502     17.65307495   16.98762038   17.64488404
    1   -7.44436112   -7.67846154    6.18559582     22.54292173  -14.38342063   16.61732449     18.19962701   16.64306050   17.95828392
    8   -5.23073414    1.30412122   -0.04711913     -1.23666933   10.53469452   -9.65660650      4.32414394    4.35574912    4.30426004
    1   -4.91728303    0.41001754    0.15126676      2.15978012   -9.06494535    7.95667064     17.34974222   16.89043111   17.58372723
    1   -6.16571061    1.14042360   -0.27372468      0.15561505   -4.62866593   -0.49085314     17.29379389   17.07759322   17.24019835
    8    5.02180164   10.22973536   -1.59405080      1.54268094   43.06775193  -11.49621778      4.33447443    4.44098634    4.29977279
    1    5.26853579    9.34996400   -1.82154864      5.27054062  -38.32322014   -6.49088155     17.46283464   15.68098231   16.99115200
    1    5.53336302  -10.21208961   -2.27449836     -7.21394904   -6.59861908   17.49753222     16.95652348   16.98614430   17.97649471
    8   -5.60267294    7.29179544    2.42636314     -4.04962774   11.87096590   15.28045466      4.31879130    4.35847632    4.36793514
    1   -5.89063093    6.37096041    2.51032462     -1.29158119  -11.23880875    1.58995375     17.20890839   16.81665275   17.31688379
    1   -5.55931322    7.57891676    3.37546012     -1.65881061   -2.78028716  -12.02167240     17.18623483   17.14737682   16.78723226
    8   -6.32837026   -3.21265375   -9.20602414     68.56541218   40.24857414   40.44177607      4.50707554    4.43426285    4.43370646
    1   -6.73570969   -3.31181481   -8.31587680    -10.69336773   -9.15795812  -12.74769533     16.81427737   16.87611378   16.73732018
    1   -5.41586053   -2.83029962   -8.90810004    -47.96974368  -24.77351885  -26.63127496     15.29059245   16.23825922   16.16813789
    8    9.50925011    0.20809406    2.11535041     13.38465943   26.29806465   22.83931050      4.36293937    4.39638082    4.38861510
    1   10.45937323    0.42066766    2.20057353      0.62792589   10.56602395    3.10130517     17.31417408   17.70021543   17.38580419
    1    9.60381649   -0.62281360    1.68980259    -11.90141431  -37.74919395  -21.53750964     16.75533346   15.71423713   16.37295126
    8    8.71492703   -6.59016372    5.22522388     36.83426702   -0.76916864   17.71693130      4.42343215    4.32652580    4.37555477
    1    8.75224220   -5.73627728    4.76837082    -11.42356034    4.27768840   -4.81576055     16.78605435   17.44257379   17.04991706
    1    7.90413650   -7.00682840    4.94008980    -23.52978379   -1.75563574  -13.91248984     16.31340701   17.19100753   16.69223589
    8   -6.62379072   -8.68126514    1.14239961    -12.66857784   15.92497273    8.83942411      4.29520430    4.36968893    4.35365991
    1   -6.12866100   -9.49594490    1.04595970      6.00776155  -18.18933323    0.23261342     17.50461572   16.51217312   17.26110028
    1   -7.54125647   -8.98213966    1.34540080      9.12367923   -3.31214895   -3.96755766     17.65551566   17.13429017   17.08317130
    8   -8.09088531   -4.61389023    6.10496822    -14.24375008   31.38033525   31.80573409      4.29313114    4.40990182    4.41252559
    1   -7.95130124   -5.45494829    5.71660906      7.68256743  -35.77640637  -18.83525168     17.56372221   15.79150262   16.48742891
    1   -7.72883545   -4.00563497    5.45182771      5.79440908    2.00163836  -12.25170403     17.49593767   17.34693491   16.73983510
    8    6.42057608    6.22192762    1.73154038     33.47799401   28.30606504    5.95744707      4.41597880    4.40123357    4.34508975
    1    5.51891054    5.96138834    1.93485385    -19.99874377   -3.18798191    0.59821728     16.44614416   17.12993041   17.27258179
    1    6.48627728    7.15104054    2.10312511     -9.95002758  -23.93391976   -6.49294210     16.84073590   16.29228548   16.99778402
    8   -0.77032408   -9.94438305   -6.36075210     48.22553177   -9.59763415    6.77277336      4.45381564    4.30405884    4.34804526
    1   -1.69281258   -9.84417313   -6.51380299    -38.45652846  -10.31919004   -0.03472712     15.68361501   16.82843080   17.25084415
    1   -0.69054519   10.14048425   -5.90241156     -8.86278303   11.72007141   -7.40605865     16.89392272   17.74996254   16.94167510
    8   -4.39783041   -0.98112259    1.06896287     11.83974533   24.58097794   33.16389126      4.35964636    4.39182269    4.41473628
    1   -4.16031500   -0.57419129    1.95900065     -4.63511561  -11.67153387  -29.03136533     17.06914103   16.78213007   16.08362370
    1   -4.78975327   -1.81116294    1.33172227     -7.11229612  -14.78257115   -1.69546804     16.96911963   16.66352866   17.17755327
    8    6.44443591    5.73440836   -8.45605242     13.89108568   36.87397429   33.04582009      4.36422894    4.42458576    4.41422796
    1    5.99927205    6.46842088   -7.94066603      7.86605770  -21.67701150  -16.51692904     17.58281567   16.36969939   16.58241549
    1    7.37712223    5.83395745   -8.10951217    -19.17844199   -7.59241237  -13.11612103     16.48601522   16.95136131   16.72801896
    8    1.54174167    0.00869922    1.51117151     11.88946000    0.01548725  -10.06149836      4.35938630    4.33084439    4.30273959
    1    1.01149555    0.40990315    0.78233657      1.27798884   -2.82181952    4.51423268     17.31792627   17.12662269   17.45969436
    1    2.45057601    0.01454161    1.13438144     -9.11971908   -4.86858287    1.99809390     16.88907130   17.05039595   17.33221420
    8   -4.01572102   -6.11877231  -10.14104542     16.69561739   14.01096901   50.15325421      4.37120094    4.36510766    4.45928477
    1   -3.77286327   -6.03488177   -9.17641774    -17.47474347  -13.31443678  -21.19812139     16.54509190   16.71075394   16.40182477
    1   -3.29155366   -5.57677648   10.45347041     -1.80061022   -1.16569745  -19.45532431     17.20071027   17.22109125   16.44775809
    8    1.09942931    5.09552113   -3.84666943     60.19228658   51.11149862   -2.92916091      4.48641966    4.46109526    4.32153609