 BEGIN_INFO
   #
   # This is a XCRYSDEN-Structure-File
   #
   # aimed for Visualization of geometry
   #
   # Launch as: xcrysden --xsf .HICOLM.XSF
   #
   #
 END_INFO
 # estrutura final
CRYSTAL
PRIMVEC
      20.69809882       0.00000000       0.00000000
       0.00000000      20.69809882       0.00000000
       0.00000000       0.00000000      20.69809882
PRIMCOORD
  927    1
    8  -10.14394055    9.04785131    7.96628497     -9.65214125  -14.84421788  -39.83805190      4.11811488    4.65616815    3.79723164
    1   -9.74494171    8.96648512    8.82132558     12.68488581    3.01984162   28.93349592     17.49062710  -12.49045725   26.06358199
    1   10.30005928    9.98111526    7.92638573     -2.01441866   10.89244144    9.48386087      7.45804406   13.53042224    3.41906511
    8   -5.54665923   -7.50171674    6.78161554     -6.05587503   25.49213757  -17.12993233      2.46548358    7.06899174    2.66222408
    1   -6.28712130   -7.93842684    7.20680555     -8.23476554  -11.21823376    7.91146262     -8.89011188  -12.24505412    8.94082302
    1   -4.77497996   -7.83505504    7.23875099     14.92684487  -13.56831413   11.72200851     31.27905801  -12.29659704    7.03192930
    8   -4.71484129   -4.50417371   -7.73655846    -34.75813716   22.90690603   12.56474773      2.99972436    4.51760522    5.18481193
    1   -4.62064914   -3.94570219   -8.54725032     -1.17612441   -2.80616977    8.30597044     -0.08771771    0.40130588   10.60338902
    1   -5.54381131   -4.11104719   -7.29767524     35.40573897  -18.47010538  -15.94537327      9.86457547  -12.68408360  -10.67171238
    8    4.89704721   -8.06394996   -3.44993721     28.13818316  -26.91400485   30.79948617      4.45193164    2.99258249    4.92273136
    1    4.24160730   -7.98014672   -2.73132757     -4.37656600    4.19282369   -5.72815604     12.15287961   10.15126634   -3.16283357
    1    5.64588130   -8.52954441   -2.94278278    -23.48207918   21.67365584  -25.09486703      3.40059981    5.93631314   -1.92239526
    8   -3.31476279   -2.87880180   -4.32811041     -8.57049637  -16.48686122   16.28299329      3.32927114    5.20598456    2.70096009
    1   -2.81991981   -2.28932713   -4.88349253     14.28895724   17.41537623  -19.28855922     -1.61042421  -14.46667820   24.15666234
    1   -4.19663404   -2.46691513   -4.28986952     -6.08911633    0.84827819    2.14498142     16.74042963    9.55324659    1.72588751
    8   -9.84006368    4.39191881   -7.45478093     10.23834224   11.77299106   -1.78069563      1.87535001    2.88660924    4.97826367
    1   -9.19754573    5.13613145   -7.42606112     -6.60493273    2.47372604    4.45928261     29.54143847   31.45386237   -5.55383464
    1   -9.33900372    3.75522926   -7.99635190     -4.51372564  -10.49643155   -4.47442687      5.88126742  -12.11828759   -9.20365563
    8    9.13408745   -4.89500696   -7.57499058     72.17344174  -71.44483988  -39.27685978      3.99978627    4.66363982    4.68118053
    1    8.38007402   -4.60868327   -7.97370124    -70.68923050   29.22826853  -37.97844414     25.07583381    5.05925473    9.00816569
    1    9.09756162   -4.47544960   -6.78533870     -3.32693697   44.01837239   75.75965143      3.55848699    2.60497267  -16.28677509
    8    9.46162805   -7.15600277    0.53612145     42.32407624   23.56899713  -44.00951528      1.40972853    5.79300891    8.50402095
    1    9.62996258   -6.20146759    0.81983871     -4.32453663  -29.59100337   -6.29674828     -4.41605734   12.56740780   10.76329569
    1   10.11426243   -7.26741492   -0.27197511    -40.98766897    6.47061498   51.02453123     31.51727960   -3.95065823  -15.11826337
    8    3.32397351   -0.05461144   -5.39974826     45.23066764    1.38271902   44.13759849      3.17205620    3.90511114    3.97983079
    1    3.22367412    0.85648681   -4.97048674     10.96077988  -36.14139137  -12.37468316      1.38943309   22.32358590   11.85358586
    1    4.12136854   -0.49033174   -4.87403846    -54.49394308   34.53055355  -35.42445294     10.02720501   -3.17435572   23.75321091
    8    3.75688805    7.53007622   -1.21151572      4.69757622  -22.38999868  -26.96694434      3.67667519    6.78843336    2.97073127
    1    3.54168984    8.23089226   -0.61447723     -8.76734728   25.01156218   21.42324627      0.72234709   -4.61865325   -0.83065965
    1    3.21329991    7.75648992   -2.00290630      3.65016975    0.16714437    5.15055993     14.09528769    8.82034577   14.08791437
    8    7.45267161   -9.61395763   10.14714347     14.75302062   -1.63890293   50.63745528      4.27626122    1.59674354    5.25123303
    1    7.51960129   -8.90803186    9.53232635      6.51084404   35.70875317  -27.02872597      1.64366268   12.24317108   -9.28266122
    1    6.99358001  -10.23688755    9.62910228    -24.82364666  -35.88238697  -21.73802295      6.14323466   14.40269361   15.53169027
    8   -7.77982381   -0.14610959    0.71023756      6.64405619  -24.62910850    5.02645686      4.85714442    3.76427752    5.87492480
    1   -6.91521978   -0.33120295    0.30077118     -3.91557415   12.09060503   -0.43411719      7.26614428   18.07444224   -3.76715056
    1   -8.06730279   -1.06583367    0.94306127     -4.78185959   15.24398973   -1.37687430     -1.03169095    5.00077756    0.89273999
    8   -2.80373377   -6.05589881    9.30190703      9.22693843   14.85867120  -20.92123239      5.70450531    6.58465169    4.38796783
    1   -2.89236352   -6.86877456    8.76353770     -1.94343692   -1.16134690    8.68474671     -0.50034934  -22.01885665  -28.81982797
    1   -3.11553652   -6.31883227   10.17827609     -7.95730646  -11.43049935   10.11243070    -10.61695687  -10.58810086   40.20791655
    8    3.58047950   -2.55737983    8.99640197    -34.24114343   23.80129567  -23.88513922      5.06894318    2.79099777    0.94736525
    1    3.01139214   -3.09230248    8.37704070     16.42767489    4.70740341   16.35114443     34.96188047   15.86629369   27.65864933
    1    3.15481514   -1.64490727    8.88258393     18.50946383  -28.76615846    6.07152646      0.30805619   16.09671491    5.34865480
    8    4.25714779    9.78724428   -8.07534165     59.88353811   28.45575273   34.61987993      6.18661429    3.55601810    4.66934071
    1    4.53006640  -10.24959844   -7.32825428    -21.51608480  -41.51183933  -40.56693295      8.83407937  -13.32320185   11.96195012
    1    5.15680433    9.37248310   -8.30907744    -39.99102732   11.37417318    8.83515416     -5.70984282   -4.13394859   17.18835058
    8    8.78069911    6.92884755    7.62531477    -35.23156496  -42.90639601   -3.20026502      5.25299349    2.85049521    4.74210871
    1    9.39408438    7.62010001    7.68356686     35.97212682   43.23292926    4.30973427      2.92798575   11.76567308   10.37644524
    1    8.78930379    6.72212519    6.66976732     -2.56704180    1.52666999   -1.56085595      6.40100205   -5.25262516    5.33218825
    8    8.28418298    8.00309400   -1.76430101     10.57591631   -6.20681784  -10.60185214      3.70246432    5.76915524    3.80744729
    1    7.71296097    7.30859562   -1.40790492     -6.48836439   -3.80833238    2.82024837     -2.05481203    8.80006663    2.65648882
    1    7.97497844    8.76772353   -1.26784244     -1.93107858   10.81477753    6.55090315     -9.07055487   18.36265261   -2.76660583
    8   -8.48797606    6.12659940   -1.84322646     11.36358489  -73.26921762  -44.41511766      3.50803606    7.09919632    4.33177949
    1   -8.02446928    5.49229240   -2.55477587    -32.88347193   52.14779507   61.10112850     16.84884147  -18.44958529   -7.90748084
    1   -9.11186690    5.47567251   -1.38647069     25.92753795   21.11902194  -13.83899748     -2.01130634  -10.74937646    8.74312230
    8    5.43191448   -1.21146849   -4.13841782     30.96001984  -17.03217682    2.74799369      3.30940243    4.59518591    3.29394890
    1    6.32516196   -0.84329011   -3.78374284    -41.55179028  -27.83315123  -17.96607668      7.97933570   -8.12151581   12.33822633
    1    5.61398812   -2.17176482   -4.42727240      8.50157586   44.57715384   15.33439640      0.12584232    9.45007407    1.27581741
    8    2.13586358    5.79108711    3.72601539     25.78918750  -33.09482010   -6.84331573      3.48491790    4.38320737    2.45891189
    1    2.10301249    5.06644006    3.01962042      2.64503308   29.70055810   26.22922069     -1.23249964   -3.22449739   15.02606027
    1    3.00347697    5.58647754    4.20467285    -32.00386971    4.64586415  -18.53803806     13.97511789    0.71039519   13.51409205
    8   -7.86872404   -3.63861002   -0.95375467    -40.62115583  -45.62920120  -46.54791388      5.54154087    4.84704454    4.57465154
    1   -8.37888254   -3.36833234   -0.22025435    -21.96121194   13.49281840   34.84390876     27.83046394   -2.61061259  -27.36918170
    1   -7.05669632   -3.24682040   -0.78258898     61.01285086   30.95456633   12.74323514    -46.16511264   -8.19219912   -0.13883870
    8    7.55505564    9.98241589    0.01527648     21.58619648  -10.30184209   21.93122213      3.02539692    6.48470116    2.09549162
    1    6.85949150   10.12596010    0.67604651     -6.52798386    3.18823853   -4.96901396     -1.62621101    4.59714549   12.08206868
    1    8.33183250    9.75419763    0.59685102    -12.20125477    5.64463640  -18.41124944     12.20896089    3.91709897   12.29079353
    8   -8.24800036    5.59506370    8.72819244     -4.02551837   -6.38457885   15.92671353      4.61111759    3.23659237    5.90037399
    1   -7.91213567    5.99896642    7.91448212      3.56643816    6.16103480  -10.99145798      4.25858289   18.73010818   -3.32463983
    1   -9.11822583    5.24122889    8.46811893     -3.19997737    1.02649304   -5.17902034     -0.72054081   -0.23301981   -6.07104229
    8    0.61373454    8.06917459   -9.66916614     43.33982075  -12.23942818   16.26489097      3.74646262    4.09350214    3.96272292
    1    1.04047067    7.74008972   -8.83673075    -23.12457692    5.83964260  -10.18322193     25.38306911    0.38761839   -3.84484394
    1    1.44589707    8.20244663  -10.18078751    -19.24902602    7.60979570   -5.03923385      8.88685540   -5.22120439    9.24886183
    8    8.19299802    0.46477342    2.97845327    -32.30112017   -0.29882551  -19.59448945      4.69945438    3.46993787    5.19637643
    1    7.86934945    0.89541897    2.13797420     12.03230605   -9.59781432   16.37750383      5.47777867   13.33946826   -2.93594937
    1    7.34626684    0.04495328    3.30736672     22.99266302    8.52876583    1.49310061     17.91669876   11.28558892    1.95065721
    8    2.10229349    8.33064451   -3.21702522     19.13069995   54.27550438  -36.24540046      3.64877651    3.69046610    4.77554654
    1    1.96251599    7.80242333   -4.02691815     -6.18430794  -10.89752052    7.29043829     -2.25774501   11.65255228    6.54582764
    1    2.37859494    9.22652496   -3.65176108    -14.15108609  -41.47164163   28.32286534      3.21803340   11.47529133   13.07434527
    8    4.51166804   -7.33769886    9.78976403      2.14652263   -8.86262841   10.20585755      2.77614337    5.60160616    4.61487371
    1    4.71605900   -6.42816045    9.55020068      2.82737211   10.13930599   -4.44942191      4.31788723   -6.19479144   -3.50308356
    1    5.05393637   -7.47816479  -10.10451016     -2.57259567   -0.64717326   -6.23275874     15.83115703    7.07964960   24.51334569
    8   -2.89011041    0.24585446    3.89454799    -47.60050633  -34.49603729   58.77101595      6.67184671    9.48645611    2.60975062
    1   -3.02744820    1.00940612    4.52648152      3.95563961   -9.28178419  -16.13511587     -1.72360606    5.52913485    4.91672077
    1   -3.47896586   -0.47431454    4.37471728     38.08921656   42.24603334  -40.84376240    -20.90059724  -30.42372647   18.11518408
    8    8.66809301   -8.69077621   -4.10703833     35.87210505  -55.73079909   86.33778234      5.17237958    5.84663753    2.09376773
    1    9.54666759   -9.13806473   -3.70582109    -71.58813750   39.72601772  -39.29113380     32.88089709   -8.43884589   23.32891304
    1    7.97360781   -8.90667141   -3.36984838     39.19834101   16.16879380  -44.08450002    -31.42807870   -1.47878918   44.56565931
    8    4.50760724   -5.97587403   -5.18699908    -34.62093747    8.20692982    6.01107120      2.99630325    4.89802020    5.71237699
    1    3.58320494   -5.85931821   -4.84725524     13.06206244    9.13187276  -14.14980377     -4.37971750   12.60860055   12.05563016
    1    4.78147057   -6.66860039   -4.58462455     19.28515040  -15.48446159    7.40488518      5.85184882    4.27978377   -7.17848514
    8    2.57628591    4.07311556    1.65096371     22.04739164   -0.71893953   17.30317867      4.21691654    5.91371229    2.56505912
    1    3.54353761    4.19004359    1.85105297    -21.27748755   -1.33508478   -7.35812122    -10.46052002    1.43760559    1.60983194
    1    2.49979612    4.48262245    0.77395125     -0.10251955    1.58302686   -9.45704245      9.03922996   -5.50599284   28.99192912
    8   -2.70204352    8.63931861   -1.69307228    -15.58827828   -6.79135730    2.02014836      3.36752645    3.26269262    1.92746188
    1   -1.77673003    8.92022470   -1.80856212      7.61071857    2.67266642    0.42555890     24.26971556    9.87008337   11.32467162
    1   -2.94934562    9.05850099   -0.84140986      4.02638282    2.69891287   -5.39357616     -7.00058793   13.08069061   21.74610138
    8    2.81538008   -9.23197696    9.08179024     30.87412177    6.22382242  -21.42532313      3.73416439    5.21902050    4.98221734
    1    3.46609186   -8.49132077    9.26669879    -17.12464915  -10.60968634    5.09320583     27.75133791   10.64439186    2.42369689
    1    3.22860107   -9.62655502    8.26212106    -15.64231420    4.92841117   17.42238912      2.09048423   -7.46820648    1.08198847
    8    1.29972323   -9.45496674   -0.51070311    -17.58164489  -78.59928874    8.10222173      4.80497854    3.23226230    3.74149597
    1    1.90308758   -8.92528280   -0.94186974     44.05831684   44.51889516  -29.63142314     15.26856675   21.97285881   -1.58484542
    1    0.70589331   -8.84504054   -0.13167882    -27.97075324   35.69718638   19.54263120      2.41794791   17.53881626   19.99745529
    8    5.03435237   -5.72981861   -7.84194977    -17.57037407   17.57384915   31.48856459      3.87566505    5.23600005    4.34605245
    1    4.78435578   -5.82237657   -6.87552951      7.35511125    3.61709363  -22.02801642    -11.93100685   -3.32880916    9.72788371
    1    5.41090159   -6.58342079   -8.03795590     10.59676647  -21.48747413   -7.94417934     11.00499430    6.69187844    0.54416785
    8   -3.14144572   -8.42673505    7.90234380    -47.41762305   31.81911639    4.08808972      2.69395463    5.17075867    6.01083327
    1   -2.33574354   -8.44404158    7.43949472     42.24523652   -1.87267072  -26.10985273     20.50163783    7.39679760  -15.11476611
    1   -3.05585610   -9.17477863    8.47310881      2.27114386  -28.75300037   21.57357677      8.39121169   -1.24057291    7.11300505
    8    2.03668238   -5.66811665   -3.93746567     10.48644257  -11.39717357   21.41033383      4.35460156    4.26940877    5.13233729
    1    1.49915665   -4.90074929   -4.15466994     -8.67404329   11.70444470   -4.92696517     16.46780913   -4.53159002   13.86357182
    1    2.06358061   -5.60935095   -2.94772262     -1.27446790   -2.52249395  -17.19799072     -2.44309541   16.09736980   -7.95125929
    8   -2.80106800   -4.99310817   -5.87631104    -33.70419865    7.32837493  -32.30492343      1.91940191    5.76740594    5.11447113
    1   -3.52338169   -4.86835544   -6.57791283     29.12180065  -12.51652771   23.14884478     45.60550207   22.25410619   39.28209392
    1   -3.00290185   -4.24198891   -5.29281621      2.88403677    1.63504009    9.21249332      0.14912635  -11.17960625  -18.27146190
    8    6.81890101    4.72746461  -10.10704545     10.04112839   21.65757846   -2.57802141      5.46058697    4.18573149    3.98071524
    1    6.81898595    5.57878830   10.07130454      3.46080628  -21.89121721   22.24816950     18.47900706   17.57414504    1.71149209
    1    7.45033396    4.90120250   -9.35255682    -14.04681303    3.40097019  -20.69457752     20.77607762   -0.83227270   18.10000677
    8    1.53146884   -3.14009277   -8.27857769     37.18840899    6.60103575  -17.86020191      5.41558792    4.52561170    2.93646559
    1    0.69871662   -3.52418299   -8.01783090    -19.06891686  -19.01309439    7.15317376      1.95924223    0.05550888    6.09296680
    1    2.04557988   -3.92766480   -8.60529509    -15.63334694   12.11335164   11.43353720      8.32312351    7.23623799   19.40253290
    8    6.16933739    2.42094367   -3.21988407     11.96579889    1.47981836   23.81948022      2.40827912    4.38714586    6.43903480
    1    6.39791563    3.10357774   -2.53583941     -2.20075108   -9.00176732  -12.92719891      6.24702377   20.84781685   15.29862093
    1    6.58891235    1.60840503   -2.85528640     -7.72015955    9.21592606   -7.62063346     10.34324477   -6.25573167    0.81023314
    8    7.89038546    1.19341122   -9.19308414     26.47308201  -11.24862282  -20.15844047      2.70354712    3.74964045    1.89002240
    1    8.35220118    1.15248116   -8.37069023     30.64853539  -12.31795797   20.63654502     22.29127177    1.00701053   26.43841228
    1    7.13054604    1.61403654   -8.87941161    -53.73052581   22.81092404    0.36351065    -18.28708864   18.32558949   11.13974302
    8   -9.78220640    7.72259300   -5.56343179     16.29523085   -2.88084407    0.54922432      7.17007634    7.85255700    6.43933147
    1   -9.30133347    7.12077132   -6.17956846     -7.28129715   10.10714160    6.25814757     -7.65431126  -11.84438000    2.57179118
    1   -9.03711760    8.10519573   -5.03800479    -13.56858658   -7.47296812   -5.01826377    -19.94106222    4.16897577    2.05937807
    8   -5.75691529    7.48200385    1.91353923    -14.45190950    9.78942092  -72.44581919      7.18766012    2.76881702    8.32956502
    1   -6.08534805    7.57656030    0.92727624     19.45028757   -5.72140191   62.07468021    -11.91117030   10.95449720  -53.09833235
    1   -6.45323983    6.92249921    2.29444621     -5.59174346   -3.52711066    5.81423687    -22.20045893  -14.81392755    8.75927714
    8   -4.05157474   -6.72316630   -9.09872047      3.58085889  -26.24561766  -29.03180165      4.75503553    4.26837441    2.75296853
    1   -4.26946502   -5.96042746   -8.58867746     -6.62722472   31.08953884   23.02095093     -0.39631865   42.57867265   30.64457770
    1   -3.69158434   -7.32601277   -8.43582550      6.19676375   -5.19452736    9.09494312      7.34633421  -26.32392961   34.88658082
    8   -2.52411946    3.36655946   -3.44776505     29.29331075   49.44345281    6.20132553      4.99687108    4.11801834    3.84420270
    1   -1.64956782    3.40522549   -3.94570871    -28.34346643   -5.70686159   14.18165326    -37.04417210   10.63873124   31.30620397
    1   -2.54187296    4.28210142   -3.00308140      0.95517186  -41.13425614  -18.01119332      5.73188581  -23.26696175  -13.44109450
    8   -1.68531131   10.00288083    2.49176020    -23.48694915   11.54622083  -27.72207580      2.99345552    4.14378074    5.50792864
    1   -2.27416463   10.25727734    1.70828660     21.55030652  -14.12450046   27.78449914     -2.10603527   10.79357200    0.35778706
    1   -1.27339141   -9.84799908    2.73444175      2.06500820    2.19699735    1.51798988      7.19525617   14.31782054   -1.47991545
    8   -8.87779974   -2.52777405    1.38142472      3.99930845    5.46791023  -10.47110217      3.17026478    4.19208231    4.65467094
    1   -9.64978018   -2.18507385    1.85760184     -9.69266479    7.80863392    3.96005878     19.35565488  -10.24396853   -3.49542463
    1   -8.65455768   -3.28562835    1.91708721      8.32945919  -14.99797327    9.82680722      3.14326585   12.74739199    2.70935570
    8    9.48938284    3.67170022   -3.00528074     -7.66191355   11.33430796   35.12020388      2.81983326    3.60625527    5.66510619
    1    8.60234009    4.01751349   -2.74499389      9.86968836   -6.67190552   -9.94757563     11.71972168   -0.35693716    0.22634469
    1    9.99019995    3.85217675   -2.16060056     -3.81611848   -7.10517125  -23.19338337      6.38714289   -5.06920170   11.51142919
    8   -4.68820967    1.89741873   -8.84714567    -28.00336748    3.26757658  -18.96973877      6.31230156    3.38803426    4.71373229
    1   -5.29293498    1.27186265   -8.40903650      1.66445097   -4.53268171    0.88682050     31.39530680   21.79763548   -8.08531909
    1   -3.90105778    1.83067585   -8.31970326     24.04817265   -1.72501471   18.90024218    -14.80728862   11.98812450  -13.68741346
    8    5.08837549    5.18757383    2.24537222    -10.17411413   39.92353765  106.00514923      4.71364208    5.56755753    3.32528612
    1    5.19239787    6.20130255    2.14799392     -2.75190913  -51.16740230    4.43930193     16.11290962   -0.09788631    6.64846085
    1    4.93753623    5.08313764    3.30794968     14.47495197    7.26540319 -104.69344316     -5.86270677    4.63938328    4.73894905
    8    5.98865893   -0.61621852    4.02701673    -16.82653591   -1.36068260  -15.42441303      5.44872008    4.42825582    4.21247544
    1    5.38656930   -0.62740924    3.23164990      8.87125643    0.25875045   16.22841623     12.35065600    9.62000672   20.31600759
    1    5.40737077   -0.21819978    4.70984855      3.15614604   -1.46368947   -0.21910060      3.62787817   -6.03808121  -21.03469259
    8    8.57542228   -6.56705742    5.41842465     13.39312532   15.04583614   -2.61011573      3.25941951    2.51130252    5.68398761
    1    7.69495866   -6.82021202    5.68414972    -25.84414802   -1.28341223    4.36848561     37.56851161   13.22439384   -7.61886334
    1    9.02298723   -7.41094678    5.45705255     12.73315228  -15.44042520   -2.23357676    -12.84630762   38.59239436    7.66697704
    8    6.69502282   -9.65342757    3.84728339     34.24523521    8.18655508   27.14604098      4.32299720    5.50252210    4.57098260
    1    6.05453210   -9.83868312    3.19760002    -29.94070895   -7.04047885  -29.99941080     26.31774154   16.35697412   13.79857357
    1    7.44825790   -9.30856611    3.31815234     -4.59481604   -0.21957843    5.09040572    -32.03569681   -5.42810331   41.56163499
    8    5.39594915   -1.94185893   -9.73966327    -12.27578933    9.11414976    3.55933239      4.11263261    1.49195946    3.46287444
    1    4.73296671   -2.10648078   10.23077861      6.26918552    4.91614422   22.40396371      0.46438453   14.43547443   17.44776181
    1    4.89546714   -1.44328379   -9.02807798      6.51570160  -11.66706090  -25.77736075     -3.43497852    6.82410754   10.22566019
    8   -8.17282002   -2.20128911    8.90290326    -58.47309336   11.78199946  -50.46814780      3.80176225    5.20381008    3.78341510
    1   -9.01920636   -1.93468752    9.39255599     34.46700677  -13.14685978   -7.29362540      8.54182558   13.01697380   -4.60508633
    1   -8.52446052   -2.24564270    7.93480304     24.60934606    1.58796061   53.50932526      9.93389883   -6.68573777   16.07589586
    8   -5.93197290    7.52319941   -6.13607270     -6.67217092  -45.40155729   -5.67226514      4.96328796    9.11205269    6.40878129
    1   -6.55311110    7.81536915   -5.46769904    -12.43720598    8.71121642   17.03671090     48.70739889  -11.35298358  -47.86290593
    1   -5.47502708    8.32006046   -6.34832603     17.69511385   34.03250679  -10.48289194    -30.30214372  -63.11242495   33.86109506
    8    9.90198083    9.51542507    1.52507042      2.73053036    3.76201600    1.05674579      5.39944327    4.93971319    5.93587286
    1   -9.95102365    9.62233385    1.05504642      0.47010584    7.67115505  -11.97186893    -14.97765880    7.07082320   11.17934440
    1   10.18224265    8.87672989    2.19663188     -8.31130567   -9.94579272   11.33087825      3.45549625   10.19508537  -14.30084494
    8   -8.37731305   -2.14829503   -3.13722853     -9.30121401   19.23826028  -29.71782866      3.86460148    2.04625803    5.22088914
    1   -8.22949067   -2.64332459   -2.35121109     12.38318541  -19.50907240   33.18279908     -1.66943951   21.36574362  -24.91565953
    1   -9.25181888   -2.48911580   -3.39281860     -3.26846152   -0.09598849   -5.60248386     22.27254643   20.92055407   11.14238994
    8    1.36821698    6.77312346   -5.36964952     -7.41494094    6.17521069    8.76136134      3.27648949    3.13870671    4.53279238
    1    1.47404734    5.81517390   -5.36601914      5.88753692  -10.98372389    1.51530916      1.79333271    6.41858630    1.43666419
    1    1.79883134    7.01649317   -6.19802344      5.47690510    5.95807689  -10.68698725     12.53421233   -5.06311365    3.27222924
    8   -9.70354189    3.93641548   -0.72121496      4.53571286  -16.69892074   40.06237453      3.68459021    5.93403972    4.90222818
    1   -9.59372367    4.00260944    0.28926824     -4.90021042    2.86474262  -41.61544298      2.64320401    5.52776467   27.10747764
    1   -9.57314281    2.95667693   -0.84923662     -2.15427948   17.79698362    0.39431193     11.05063625  -41.65218781   -4.34614154
    8   -9.08329310   -5.79990801    8.07932637      8.19176479   -4.67414198  -63.06144936      4.82194406    5.18470339    8.20048376
    1   -9.71396909   -6.12268137    8.67522307    -32.82289403  -15.50911357   40.22607769     15.36478958   11.97602916  -18.35922198
    1   -8.47181461   -5.34823194    8.63693723     23.09764096   16.03088602   23.36425169    -11.82301883   -4.40744178  -19.65939765
    8    6.31666310   -3.15069237   -0.94409787    -27.82164880   24.15919552   16.77744449      4.71365334    3.83642073    4.82508825
    1    7.25341733   -3.02680245   -0.83139454     29.14047462   10.46995808    6.43501558     11.55089722    4.96560348   12.47224570
    1    6.31361006   -3.92745973   -1.47280183     -4.30331567  -29.93147742  -24.35711329     18.90795919   -5.86547452    8.26746703
    8    5.21466233  -10.16748376    1.54496099     60.33055444  -25.18877609   23.12437467      3.50026870    4.48823275    5.73507427
    1    4.92113239   -9.28401111    1.50466962    -16.98460747   47.53540552   -1.69802561     -3.04909662   12.60180577  -10.97658421
    1    4.51273564   10.07917753    1.12485529    -41.62834948  -21.70957275  -21.25221545      5.12209912   13.42588898    8.97952141
    8   -9.74396705    8.55286963   -1.98971996     10.05671199  -53.81895246   -1.58574858      6.73449664    5.84144720    4.87244325
    1   -9.20256012    7.67965770   -1.99991451    -25.87121669   44.72851042   -1.93893934     19.25088531  -14.19116156    4.14292606
    1   10.02389334    8.19866548   -1.95370515     15.28917970   14.41772666    0.36770311    -18.89040381    0.61422098   11.88994701
    8    8.93457303   -8.87986074    2.56721504      4.37026067    2.44760423  -10.47002553      5.44108648    2.43117700    2.74231290
    1    9.31139978   -9.72336470    2.20663028     -2.85182603   16.50949007   -4.41655389    -14.12777930   31.51248997   31.12395553
    1    9.10837137   -8.20168117    1.85331799      0.64592864  -19.80808545   10.14471533     -5.40302275   -6.86431570   24.74233399
    8    2.77938355    2.51950008   -1.49610507    -26.60716243   -2.89810766  -12.38408948      3.50672417    4.87297230    5.58755007
    1    1.86130412    2.21947950   -1.78551495     28.83560388   20.04256353   12.38689565      5.32246166   13.73159689   -1.57495963
    1    2.68739496    3.49501898   -1.33898346     -5.49748941  -14.69386099    0.44996615      7.44921974   13.92744105    3.52565292
    8   -4.81864378    6.99727326   -9.68124503      8.93080150   15.02387580   -1.47460749      4.47672390    2.49837266    3.31191861
    1   -5.78754778    7.00049367   -9.74796872     -8.71752857   -1.88974560    2.52607307     -0.62216862    2.43886365   10.42869486
    1   -4.61078593    6.05303137   -9.67159603     -0.61899216  -11.10628343   -2.23363196      5.51361629    3.99759159   -2.57312830
    8   -7.61633113   -5.83898165   -2.57537434    -32.11332267   -3.28914424  -38.89347996      2.35303695    4.59773136    5.34373408
    1   -7.79995913   -5.04169221   -2.07732441      1.48049141   17.04934032   13.93383103      8.73883907   -8.29639089   -6.51923236
    1   -6.97570166   -6.28770720   -2.04977175     27.88715155  -13.85152614   24.14064380     33.30741936   -4.74228626   17.42835789
    8    2.94324418    2.46652606    8.87570496     45.32669841   30.12857832   37.55539206      3.42979814    2.80539449    1.88098666
    1    2.53210025    3.28799175    9.30105329     14.76952660  -30.61920604  -13.80662521    -13.21975952   19.09067478   17.13609158
    1    3.89766218    2.47357106    9.28429414    -58.71116325   -0.18476909  -24.11456315     51.06309900    1.66789399   35.47316300
    8   -1.66271173   -4.22931453   -2.73921399      2.79219060  -13.84698039   19.57474143      4.24272634    4.00189348    3.89924390
    1   -2.27457565   -3.72267989   -3.27228427    -19.75586951   10.08449470  -14.10990481     27.15926744   14.36225713    5.49875676
    1   -0.81734202   -3.92897738   -3.08373627     17.90246528    3.11758763   -4.89196818     -7.71363653   -2.81853182   12.90329953
    8   -6.01937032   10.07537864    7.55412864     16.14141441  -38.98747112   19.08579894      4.68589516    5.45879062    3.60971208
    1   -6.36249240  -10.26700962    8.37952361    -10.23773683   15.91285856    3.80876299      1.88217633    4.26939899    4.76733571
    1   -5.62219459    9.22162825    7.90342489     -5.67910171   24.63780400  -27.06094401      3.47345346    1.42863009    2.04800838
    8   -2.43038454    1.90763930   -7.38244537     -8.49677970   12.81856111   18.22787240      5.54956023    5.63769405    2.84593838