 BEGIN_INFO
   #
   # This is a XCRYSDEN-Structure-File
   #
   # aimed for Visualization of geometry
   #
   # Launch as: xcrysden --xsf .HICOLM.XSF
   #
   #
 END_INFO
 # estrutura final
CRYSTAL
PRIMVEC
      21.00000669       0.00000000       0.00000000
       0.00000000      21.00000669       0.00000000
       0.00000000       0.00000000      21.00000669
PRIMCOORD
  927    1
    8    2.45874811   -8.82131948   -8.69610944    -10.16859903    9.59880047   11.40721785      4.32994147    4.33045841    4.33050581
    1    2.53979206   -9.63849682   -9.17997268      4.47282003   -9.62405056   -8.78183253     17.25434927   17.24849782   17.24884599
    1    2.03714990   -9.07713164   -7.88044126      3.28477564   -5.91481918   -3.13381283     17.25385576   17.25003573   17.25119087
    8   -4.00712995   -9.71815777   -6.79096683    -12.62379827  -15.14844777   -1.48713523      4.32987702    4.32981102    4.33016855
    1   -3.56087188   10.44410758   -6.70415088     11.13876043    6.84590835   -0.95057208     17.25711792   17.25533584   17.25209706
    1   -4.92213632   -9.95578992   -6.91244895      1.51896104   11.27493757    1.96712379     17.25312551   17.25717568   17.25330912
    8   -5.33134937   -2.94920361   10.13510956    -10.01294009  -13.92170854    3.25313797      4.32994532    4.32984313    4.33029238
    1   -4.51664319   -2.56198556   10.44309958      4.51030807   11.44608961   -1.05081490     17.25436838   17.25724688   17.25205647
    1   -5.17325940   -3.11325474    9.20960119      2.72048723    7.61275847   -5.62182591     17.25362147   17.25565386   17.25015939
    8    2.08252899    5.98057224   -6.87420586     16.19846545    2.88132482   -7.71857215      4.33063109    4.33028270    4.33000554
    1    2.31488399    5.05624086   -6.88448894     -4.62903421   -5.69273446    2.53216375     17.25056972   17.25012950   17.25354343
    1    1.12958061    5.97903116   -6.89318294     -7.40143422    0.71015082    1.46551256     17.24942048   17.25278743   17.25310048
    8    5.76024417   -0.69744389   -5.89752555     33.57843458  -31.85739510  -21.74815728      4.33108599    4.32937394    4.32963854
    1    5.19568890    0.00044926   -5.57700350    -27.28021453   18.01688452  105.49485296     17.24116235   17.25997547   17.29630268
    1    6.24829624   -0.29111084   -6.60829985      2.37020969    7.17625090    7.29042161     17.25347626   17.25547257   17.25551912
    8    2.88756125    5.24826000    7.50490072      7.03591597   -0.52799862   -7.71458247      4.33039145    4.33019341    4.33000555
    1    2.17239194    4.65697974    7.72260271     -3.33719472   -2.51265162    0.38390849     17.25110790   17.25145009   17.25265071
    1    2.81423315    5.94615315    8.14995685     -0.54179348    4.54778651    3.37135433     17.25226649   17.25438287   17.25389419
    8    4.17554366    8.76438412   -3.53399280     -6.03070700  -10.27925712    2.87429048      4.33004963    4.32993849    4.33028245
    1    4.14991658    9.22443819   -2.69959061      1.86747262    7.55240314    3.50465635     17.25326783   17.25562957   17.25395032
    1    4.94415983    8.20490787   -3.46529085      1.79996558    5.35965465   -1.69014660     17.25324004   17.25471742   17.25179056
    8    6.60267243   -0.00022367    9.16271223   -205.80336829  -17.03687458-1333.14234351      4.32482311    4.32976071    4.29533191
    1    7.08444852    0.23865633    8.37573791     29.46643345   23.26425840  -51.85511279     17.26472926   17.26215387   17.23095722
    1    6.93141346    0.60064745    9.82560139     -8.48651271   14.52168798   19.07815315     17.24896907   17.25852544   17.26041719
    8   -5.36916738   -9.30847964   -2.42398844     11.42405372   -1.31568780    0.20863542      4.33050628    4.33017312    4.33021289
    1   -4.91723531   -9.09814265   -3.23640178      0.65037973    4.92729589   -2.93870302     17.25276198   17.25453787   17.25127177
    1   -6.22717773   -8.90627559   -2.52661255     -7.50729588   -0.21464476    3.63264231     17.24937522   17.25240199   17.25400083
    8   -9.75849578   -0.40779180   -1.44186313    -11.70562208  -19.52918662  -21.63718559      4.32990104    4.32969640    4.32964135
    1   -9.96292392   -1.33872017   -1.43439720      5.32677189   -2.40507121    4.10762699     17.25470529   17.25149554   17.25419796
    1   10.44699958    0.00012425   -1.77477931     -3.23141557    9.50007212    3.02192008     17.25115152   17.25643713   17.25374745
    8    0.52920750   -9.02248154    6.26448533    405.52175287  216.33141001  195.79342323      4.34081657    4.33586705    4.33532987
    1    0.38261838   -9.89258688    6.62492035     18.55261435   98.33065867  -46.47201133     17.26019722   17.29333018   17.23319173
    1    1.47654772   -8.96635161    6.17550922    -23.38726761   -1.86005487   -7.29873907     17.24278136   17.25171940   17.24946057
    8   -4.45222709    7.83422983    0.42511947    -72.84721546  -13.16980580   43.81451538      4.32830151    4.32986272    4.33135365
    1   -4.64181322    7.00261449   -0.00024775     10.72651450   10.82568186   -4.44467702     17.25694772   17.25699057   17.25064756
    1   -5.31256544    8.19181586    0.62621045      4.25223864    5.27394513  -11.54053046     17.25425867   17.25468243   17.24769925
    8    2.42189210   -5.76575451    4.23109968     17.94292063   14.91057214    7.50388329      4.33067688    4.33059762    4.33040369
    1    1.71206780   -5.22157341    3.90169850    -12.53856158   -8.99261232   -2.52349524     17.24728534   17.24875650   17.25144461
    1    2.95641619   -5.93852564    3.46108635     -4.11867246   -7.83127977   -5.67169404     17.25078102   17.24923944   17.25013741
    8   -4.14014599    8.79595313   -9.41152967     10.58206809   -8.40634342   13.27293913      4.33048432    4.32998760    4.33055461
    1   -4.86646930    9.15485117   -8.90938259     -4.70697899    4.12831499   -5.51961824     17.25053677   17.25420632   17.25019995
    1   -4.27934011    9.13363617  -10.29191303     -6.97379349    7.56298558  -14.18814339     17.24959606   17.25563201   17.24660103
    8   -1.36387710   -9.02411355    8.89325317     -0.64101064  -39.66391636   14.97464932      4.33019057    4.32916963    4.33059928
    1   -0.43273588   -8.89558758    8.73519303      5.55850675   21.18744213  -11.38591598     17.25480248   17.26129176   17.24776279
    1   -1.71728229   -8.13933234    8.92114610     -0.22229200   17.65639139   -1.93369385     17.25239948   17.25982604   17.25168865
    8    4.19173867    3.42529542   -2.80645456      0.99515667    3.21962454  -14.34450334      4.33023334    4.33029151    4.32983201
    1    3.73926744    2.60534708   -2.62917658     -5.07004140   -1.71476023    6.99254633     17.25038765   17.25178206   17.25539541
    1    4.55792170    3.67378642   -1.96224037     -3.61863547   -0.00511519    6.15378538     17.25099044   17.25249057   17.25505086
    8    3.04608530    3.39416941   -8.94958652     -3.80529139   -0.98514011    4.89910167      4.33010775    4.33018155    4.33033544
    1    3.77265846    3.10055924   -8.40698943      1.83592381    4.49711147    0.70262485     17.25325624   17.25435885   17.25278515
    1    2.80745815    2.62109509   -9.45344276      0.70304242   -1.28092268   -5.24169008     17.25278462   17.25196303   17.25031689
    8    8.54550405   -6.09831161   -4.57683513     -3.99028341    1.36639665   12.06778623      4.33010290    4.33024305    4.33052320
    1    7.65732569   -5.75430858   -4.54092120     -2.43926701    0.82728340   -3.79240054     17.25148011   17.25283524   17.25091679
    1    9.09484215   -5.31938144   -4.57168921      4.00943091    0.93328163   -8.67321223     17.25415863   17.25288243   17.24888992
    8   -9.31859864    5.10326996   10.32804662     -6.08343414   14.87834335   -3.02212342      4.33004815    4.33059675    4.33012823
    1  -10.25877302    5.19324191   10.45634959     -4.69789869   -7.98300529    0.21868041     17.25054258   17.24917633   17.25258262
    1   -8.96564460    5.08641487   -9.78670987      7.57566644   -9.03030712    2.54127899     17.25563894   17.24874152   17.25355023
    8    0.07975536   -2.79818556    7.94996386     10.49851048   66.24579445  -12.02704518      4.33048197    4.33194046    4.32989285
    1    1.01621957   -2.96613970    8.00783081    -14.25484737  -23.13505801    6.43700874     17.24657403   17.24288417   17.25516523
    1    0.02311126   -1.85985034    7.79237574      0.41578484  -10.09555685    3.69277131     17.25266497   17.24830101   17.25402508
    8    8.65992909   -0.01051767   -6.23967466    -14.64622301  -43.59401852   -1.68765264      4.32982415    4.32906681    4.33016335
    1    9.60914732   -0.00390175   -6.32607976     12.40893766   16.25624035    1.85099180     17.25764744   17.25924360   17.25326028
    1    8.42433594    0.91270455   -6.21375673      0.64649495   19.96781863   -1.18082968     17.25276049   17.26078636   17.25200137
    8    7.26057764    7.23369264    4.46992376    -10.96287922  -13.64025109    5.24952469      4.32992048    4.32985045    4.33034470
    1    7.31775559    8.17445486    4.61214972      8.62260038    8.60618512   -1.91356433     17.25607363   17.25606872   17.25169795
    1    8.05450682    6.89120345    4.87104381      8.34672499    7.71918309    1.67676974     17.25596022   17.25569751   17.25318932
    8    3.73987752    9.49197636    0.19320839     16.86357221   39.64869885   32.14487994      4.33064849    4.33124464    4.33104847
    1    3.01734322   10.08273546   -0.00028675     25.99637101  -45.22766787   -4.23425069     17.26328903   17.23370892   17.25073360
    1    3.31567731    8.65367700    0.35375834     -2.81285128  -63.53623829 -110.16156669     17.25132574   17.22610688   17.20674056
    8   -0.64381488    8.58774207   -1.71090122    -14.75760053  -11.75214759    5.75345659      4.32982119    4.32989986    4.33035787
    1    0.00071425    8.30959890   -1.06611709      3.18675714  -12.33582214  -21.41060943     17.25381740   17.24736896   17.24360193
    1   -0.54497392    9.53526529   -1.74178731     11.90689664  -10.89767387  -21.90995169     17.25743770   17.24796863   17.24339315
    8    3.47541742   -0.00130467   10.25745459  -1287.82918946  140.34777024 -448.30089684      4.29651676    4.33387824    4.31847853
    1    4.23454260    0.54164842   10.45103159      7.15441979  -23.66911022   22.41686724     17.25546610   17.24266445   17.26180231
    1    3.29991331    0.16782231    9.33600622     24.15772855    4.89546873  -48.96219433     17.26252502   17.25452474   17.23216027
    8    3.62753249   -9.57617172    9.09035123    -11.82520883    7.28300799   -3.33253986      4.32989787    4.33039799    4.33012017
    1    4.40727666   -9.24006469    8.65728001      9.30373043   -2.74491155    3.53471709     17.25635723   17.25135249   17.25395920
    1    2.96576420   -9.57867980    8.40440793     -0.44933367   -1.12621946   -0.98577266     17.25230736   17.25202401   17.25208503
    8    5.57798811    0.01403434    8.84330815   -124.95966113   28.57190110  -53.46215400      4.32693810    4.33095478    4.32880878
    1    5.33688596   -0.90548804    8.77389605     15.47069672    2.12016959   17.60757928     17.25891722   17.25337521   17.25980438
    1    6.53000339    0.00006424    8.88794438    288.05664436  -53.00308700 1409.15974090     17.37212341   17.23049355   17.83767351
    8   -1.24028007    4.17235066   -6.95116889     -0.42860255   19.55728077  -24.05081365      4.33019608    4.33071892    4.32957815
    1   -0.30416584    4.08529555   -7.10810801     -0.12655796   -7.88203148   26.00010623     17.25244111   17.24921876   17.26328939
    1   -1.62033726    3.42373834   -7.40238110     -3.86475799   -3.71672476   11.92618994     17.25088801   17.25095155   17.25744664
    8    5.40350905   -8.57770640   -2.83488157     -0.48076461   13.06939013  -11.54200789      4.33019474    4.33054921    4.32990534
    1    5.90510314   -7.96527929   -2.30395648      1.90095563    0.01382035    9.30574998     17.25328369   17.25249980   17.25635906
    1    5.62635105   -9.43149176   -2.47449054     -1.26826227   -7.09984524    4.06854287     17.25196529   17.24954411   17.25418159
    8   -9.16916659    2.26616405   -0.00324567     44.87256379   27.84313668    3.86603354      4.33138125    4.33093575    4.33030857
    1   -9.88114681    1.63249465    0.00052225    438.02444740 -577.04521759  -20.44407272     17.43440568   17.01285147   17.24400319
    1   -8.38204332    1.72863284   -0.00224075    486.69954554  195.85530706  -28.36657921     17.45461623   17.33382946   17.24071146
    8   -2.46063645    5.57451311    0.87161461     -5.61810013  -39.50945551   -7.69118398      4.33006038    4.32917385    4.33000606
    1   -1.56168924    5.33927796    1.08394159     26.77210779   24.42489246  -15.95893145     17.26361235   17.26263503   17.24586535
    1   -2.83677265    5.82801111    1.70993180     -5.69867182   15.43064458    0.82689589     17.25012505   17.25890046   17.25283719
    8   -5.62301546    0.45409648    0.05042235    -93.04731589  107.41720348  -72.20115647      4.32777307    4.33301773    4.32831851
    1   -4.75895026    0.05403627    0.00735426      0.25493124   -4.85957516   12.60191984     17.25259862   17.25047310   17.25772543
    1   -6.05172368    0.00000025    0.77049051      0.32910624   -9.25154730   33.54013430     17.25262862   17.24864968   17.26642060
    8   -7.55552608    2.59580416   -4.02671195     12.09952118    5.34039236    6.69513885      4.33052390    4.33034697    4.33038254
    1   -6.74408890    3.07474823   -4.17063808     -2.02233476   -3.09048226   -3.64066958     17.25165426   17.25121037   17.25097997
    1   -7.99921930    3.09339224   -3.34549381     -5.14380162   -4.93708206   -0.43338746     17.25035534   17.25044298   17.25231321
    8   -7.03398391    3.68904351    6.09199227     13.53706324    0.97510104  -10.78239287      4.33056153    4.33023293    4.32992517
    1   -7.88064926    3.97637152    5.76172109     -4.67655773   -0.71053732    8.53398838     17.25055153   17.25219649   17.25603731
    1   -6.70787689    3.10475924    5.41321398     -2.09903541   -7.39805455   -2.71790719     17.25161998   17.24942072   17.25136513
    8    4.92320290    7.56474774    6.95757355     -2.79895261   10.50193525    0.77073665      4.33013430    4.33048217    4.33022750
    1    5.01611385    7.61762268    6.01044517      3.85370401   -2.21796267   -4.70853511     17.25409186   17.25157103   17.25053837
    1    5.27086993    6.70449839    7.17571954      1.30880045   -8.05074294    3.10849501     17.25303499   17.24914907   17.25378304
    8   -6.04683260   -9.34052765    0.40370346     -4.77095861   16.98366686   11.01267606      4.33008255    4.33065157    4.33049557
    1   -5.21153341   -9.11090065    0.00613025      0.47624304   -5.07967456   -8.76036264     17.25269113   17.25038294   17.24885302
    1   -6.18590672  -10.24619802    0.14125030      0.01571077  -10.05405731   -5.60287572     17.25249859   17.24831952   17.25016600
    8   -4.28377304    0.23557840    6.04162726      3.82929658  -39.16137167  197.08056905      4.33030753    4.32918269    4.33536356
    1   -3.45585085    0.00016725    5.63219705      1.33031358   -8.57241440   -5.37632360     17.25304473   17.24893202   17.25025864
    1   -4.33644513    1.18054263    5.92855514     -4.45436803   14.70918094   -5.16739672     17.25064217   17.25860246   17.25034537
    8   -0.78661292    0.70227355    5.55926310     -4.88896494   -0.57751576  -26.21546860      4.33007956    4.33019223    4.32952142
    1   -0.86055702    0.20762132    4.74789477     -2.44810662    2.23419485    0.10095697     17.25147526   17.25342198   17.25253644
    1   -0.59042593    0.03997527    6.21605224      7.50239448    5.47847900   16.10911511     17.25560763   17.25476700   17.25918259
    8    3.40312741    8.71180811    9.68998542    -11.19328547  -16.81098029    9.42178926      4.32991463    4.32976762    4.33045376
    1    3.94278751    7.93515878    9.80865238      5.85221238    6.69081914   -3.38562147     17.25492210   17.25527077   17.25108630
    1    3.18980527    8.70465303    8.76105604      2.35880819    6.48438756   -5.93845210     17.25347175   17.25518522   17.25002846
    8   -0.80510893    5.23884200    0.00020833     15.07134933  -10.86154938   28.31183327      4.33060157    4.32992316    4.33094817
    1   -1.53385724    4.62451873   -0.00024975    -24.76375628    9.53152227   -9.23406908     17.24220994   17.25645272   17.24865698
    1   -0.03271076    4.68035974    0.00062125      2.32140753   -1.79289270    2.94783779     17.25345669   17.25174730   17.25371605
    8    5.31213402   -0.00752867    5.62235612    -27.11152710   28.98112531  -14.74969675      4.32949802    4.33096568    4.32982145
    1    4.61173272   -0.00253775    6.26881825     -4.77136166  -13.18493796   13.49425365     17.25051069   17.24701614   17.25809613
    1    6.10883820    0.00290825    6.14550521     10.08161040  -13.21247689   -1.72057029     17.25668126   17.24700479   17.25177956
    8   -1.03017700   -6.31126768    4.66146582     -9.86757979   -1.66425511   -6.40413726      4.32994915    4.33016373    4.33003979
    1   -1.49753122   -5.51221750    4.88865481      5.40549860    2.71904843    9.86847139     17.25473633   17.25362243   17.25659063
    1   -1.68037028   -6.83633193    4.20319659      3.58721917   -1.36508251   -1.59237720     17.25398469   17.25192683   17.25183240
    8    3.92999858   -8.99376554    4.52051777    -10.50521651  -16.21057304    2.16932192      4.32993248    4.32978318    4.33026421
    1    4.76174077   -9.45286676    4.44344167      5.03268784    1.32509333   -1.05540915     17.25458289   17.25304233   17.25205349
    1    4.18050159   -8.08568732    4.66601974      0.33976262   11.63144497    0.08686106     17.25263446   17.25732531   17.25252835
    8   -0.42920781   -2.84702758   -7.69368312     75.39168473   11.79635690  -18.17260089      4.33217970    4.33051591    4.32973202
    1    0.00004425   -1.99620138   -7.67434719     -4.52852384   38.83371107    3.42372332     17.25061250   17.26862235   17.25391379
    1   -1.35874218   -2.63626459   -7.69846320    -11.80661177   -3.14932825   -0.20767249     17.24759039   17.25118372   17.25240560
    8  -10.21411993    2.88367925   -8.23442329     -2.55725508   13.23236717   -2.56958781      4.33014049    4.33055358    4.33014032
    1   10.24789652    2.23267896   -7.79255523      4.89238199   -3.32342358   -1.10483305     17.25452486   17.25111267   17.25203209
    1   10.20007150    3.62651441   -8.35067441     -1.75544032   -3.22124071   -3.39151754     17.25176290   17.25115435   17.25108316
    8   -9.05676056    0.58017152    2.40339010     30.01703921   10.95557842  -10.38818546      4.33099260    4.33049393    4.32993570
    1   -9.80955789   -0.00359475    2.37210101    -72.97800709   11.65965558    9.21513985     17.22218621   17.25733684   17.25631918
    1   -8.30767540   -0.00600875    2.34205000     -4.86148545   -2.37415437    6.34611395     17.25047343   17.25150612   17.25512729
    8   -4.71946217    5.42089006    7.56559474     -4.74054477    8.42723749    7.73018566      4.33008325    4.33042775    4.33040960
    1   -4.61708822    4.47697968    7.48174564     -2.94364758   -4.54269061   -5.88620205     17.25126929   17.25060756   17.25004761
    1   -3.90157399    5.70715907    7.96263679      9.61953707    4.37641368   -2.26187937     17.25649012   17.25431024   17.25155407
    8    9.44274934   -3.39057375    5.76170017    -10.75010476  -21.13667599   -0.94854218      4.32992604    4.32965435    4.33018249
    1    9.31790422   -2.65121459    5.17325890      0.37513442    8.08425817    0.19925746     17.25264806   17.25584965   17.25257486
    1   10.06797546   -3.06971972    6.40565830      4.77373664    9.94059883    4.19134522     17.25447707   17.25662209   17.25423492
    8    7.79230881   -3.14234967    7.94687686      2.76512108   -5.48467429   19.06940810      4.33027962    4.33006382    4.33070629
    1    7.35798260   -3.98349602    7.83597175     -2.04171458   -4.70452715   -4.42236145     17.25164607   17.25054073   17.25065600
    1    7.19207755   -2.51852255    7.54806666      3.32069091    5.37680629   -7.83450517     17.25387194   17.25472474   17.24923874
    8    3.56777747   -6.38795471   -6.61460578    -24.03329001    6.76021571   15.76174712      4.32957855    4.33038411    4.33061978
    1    4.38263065   -5.90652263   -6.50157782      4.23267428   -0.06062238   -6.30669989     17.25425288   17.25246828   17.24987301
    1    3.84797048   -7.24847806   -6.91371095     12.51714314   -7.71623074  -13.03136987     17.25768969   17.24928937   17.24708063
    8    5.11517996    0.09768936   -4.66376116     -1.64645407   12.40951091 -114.27680620      4.33016423    4.33053211    4.32721764
    1    6.04669918    0.00013725   -4.48688818      7.90528023   -7.39361345    3.70993673     17.25577724   17.24942107   17.25403347
    1    4.73546675    0.27628134   -3.80793596    -34.01479119   -0.75617006   21.72088643     17.23836544   17.25217810   17.26151437
    8    2.37031309    5.77978117    4.63560881      5.84768563   23.57585735    0.31986838      4.33036031    4.33082412    4.33021590
    1    2.64696610    4.87866781    4.77683977     -4.31000446   -8.85357970   -2.34771724     17.25070182   17.24881618   17.25151653
    1    3.18516127    6.24970024    4.48158368      0.35600544   -6.80160359    1.58908063     17.25264230   17.24966834   17.25315128
    8   -6.27238867   -0.90349896   -3.16492568     -0.60089582    7.57189546    9.47522831      4.33019161    4.33040534    4.33045533
    1   -7.13462002   -1.30357017   -3.09441973     -4.78717930  -14.86668347   -2.66162603     17.25050650   17.24631894   17.25138622
    1   -6.41479979    0.00003126   -2.89682967     12.61889877   14.86034689   -1.90880490     17.25773205   17.25866588   17.25169987
    8    4.38298873   -2.57126149   -7.98841622      6.68127718  -17.49605551   12.38784449      4.33038215    4.32974955    4.33053157
    1    3.98815152   -1.74626630   -7.72007621    -10.18867304    8.05913744   -7.14161803     17.24826037   17.25584068   17.24952634
    1    5.29158194   -2.34486049   -8.16652235     -2.00905096    3.06772747   -7.99934220     17.25165970   17.25376711   17.24916942
    8   -8.48502637   -8.80035248   -6.47408373      7.56902745  -17.64371004   19.38195533      4.33040526    4.32974572    4.33071449
    1   -9.26159570   -8.33487740   -6.77200591     -5.00658153    3.88297499  -11.07321877     17.25041405   17.25410400   17.24789362
    1   -7.84407625   -8.11003333   -6.32856177      2.60401841    6.72871999   -7.45215758     17.25357556   17.25528926   17.24939743
    8   -2.75792055   -6.98259690   -2.43521945     12.03463046  -13.53635052   -0.77962921      4.33052217    4.32985312    4.33018704
    1   -2.32026649   -6.15900671   -2.23850446     -0.03868794    8.40304107   -0.34896291     17.25247713   17.25598496   17.25234783
    1   -3.65932692   -6.83555393   -2.16258344     -6.72840776    2.49405721    3.83505975     17.24969877   17.25352779   17.25408427
    8    3.81326555   -5.95664257   -9.34052765     -5.69084850    4.06502518   -0.09733826      4.33005842    4.33031360    4.33020487
    1    2.88192317   -6.15850171   -9.35859873     -0.37157647   -6.95459660   -0.61501637     17.25234028   17.24960426   17.25223645
    1    3.84659748   -5.04695036   -9.05790163      3.92754864    4.09926738    0.30050585     17.25412301   17.25419724   17.25261757
    8    7.93439486   -0.00028967    0.68882655     23.19053311  -83.05933260   -7.46289832      4.33081394    4.32803443    4.33001212
    1    8.59118499    0.61928645    0.38341037     -1.66355836   20.15407525   -0.63326716     17.25180268   17.26086335   17.25222803
    1    7.27834356   -0.00039974   -0.00259075    -37.92443811   22.28997615  -12.67620421     17.23674439   17.26174866   17.24723003
    8    7.56286974  -10.14051790   -0.00718867     -7.48361811   14.08377060  -10.22144961      4.33001156    4.33057595    4.32994010
    1    8.41819694   10.44813658    0.08067928     16.82256394  -11.47431107    9.65401822     17.25947944   17.24772599   17.25650119
    1    6.98274748   10.29504753    0.49614241     -2.03393889   -4.03195842   10.57645767     17.25164804   17.25081824   17.25688332
    8    0.00706733    7.76361381    0.48221248     14.15464301    0.90550332  -11.99799900      4.33057772    4.33023113    4.32989365
    1   -0.00057975    8.58527099   -0.00083074     -3.47816657   18.90753421   27.60863184     17.25104763   17.26034461   17.26395689
    1    0.86922853    7.39881961    0.30302335     -6.99522068   -3.48873547    6.01428297     17.24958755   17.25104282   17.25498923
    8   -7.49815806    5.59328111    8.02027989    -10.52443591   19.42891317  -18.83263264      4.32993200    4.33071559    4.32971460
    1   -7.21754605    4.86693180    8.56998799     -0.63583884  -11.45929587    6.60023560     17.25222816   17.24773303   17.25523346
    1   -7.14422502    6.36306528    8.45697395      1.87412116   -5.49347957    4.94165556     17.25327191   17.25021327   17.25454642
    8    7.85422183   -0.00991367    3.43741643     17.98144906  -24.85814431  -12.84326934      4.33067776    4.32955699    4.32987151
    1    8.53786897    0.63874946    3.29460230      1.92321097   16.67547280    5.55668440     17.25329243   17.25941947   17.25479900
    1    7.05934050    0.50854642    3.52604138     -8.79845794    3.61167257    0.84997923     17.24883844   17.25399186   17.25284469
    8   -5.94509857   -8.77217947    6.61215744    -17.84646003   18.72962460   10.03519605      4.32974061    4.33069730    4.33046995
    1   -5.62751054   -9.32344372    5.90242313     12.14961115   -6.13302845   -9.43496475     17.25753692   17.24994664   17.24857498
    1   -6.35492777   -9.38602774    7.21524755      7.32869416   -9.74381490    5.06086543     17.25553566   17.24844639   17.25459328
    8    0.00049733   -4.08014497    8.81183214     43.78860107   10.38436969   26.70495713      4.33135310    4.33047901    4.33090614
    1   -0.15943680   -4.95346333    9.15856118     -3.99976221   -9.72818331   26.18599236     17.25083121   17.24845336   17.26336575
    1   -0.57699793   -3.51985487    9.32279522     -5.97785265  -13.69334757  -28.21858795     17.25000856   17.24680601   17.24077348
    8   -9.22989761   -0.52538484    7.33871667    -25.43761748   -2.01274823   28.24325136      4.32954187    4.33015462    4.33094619
    1   -9.02646462   -0.00019375    6.56976234     19.99724940  -12.10797830  -51.67157499     17.26079699   17.24746408   17.23103299
    1   -8.91084858   -0.00037975    8.06749182     20.89264143    2.07082886   -5.68063938     17.26116991   17.25335451   17.25013536
    8    8.69779310    4.17823567   -0.00051267   -215.73999586  248.87724814   14.05521969      4.32456325    4.33671847    4.33057494
    1    7.92701073    4.73890079    0.00624025   -254.33076551  112.44649618  -12.31039154     17.14686991   17.29918928   17.24737971
    1    8.75870704    3.85919348    0.89559754    -10.22572436  -10.71097894   10.00760185     17.24824484   17.24804316   17.25664936
    8    7.58086975   -0.55987985   -1.60347118     47.27464551  -56.48633644   13.25177119      4.33144409    4.32872954    4.33055415
    1    8.07044982   -1.37733719   -1.57963125     -2.26769100   -8.29759510   -7.93102591     17.25155036   17.24904676   17.24919821
    1    6.68179938   -0.83406001   -1.76146131    -11.18884730    8.45805971   -3.84598663     17.24784802   17.25600596   17.25089514
    8    0.77466058    0.01429833   -6.34544969    -34.12091367   15.21876285   -8.62398188      4.32931465    4.33060545    4.32998185
    1    0.00567426   -0.54823093   -6.37168078      9.02321456  -22.09001260   17.23072086     17.25624156   17.24332043   17.25964784
    1    1.50455474   -0.58724994   -6.46330981     21.15705838   -9.09607768  -12.82375089     17.26127870   17.24871466   17.24716623
    8    3.95305359   -6.04756360    7.07365759    -11.54211749   11.92191036   -1.32224587      4.32990533    4.33051918    4.33017273
    1    4.29458962   -6.93320796    7.16013453      6.84249906   -1.27547185    0.05384254     17.25533344   17.25196334   17.25251437
    1    4.56831671   -5.51381151    7.56873167      9.64994066   -7.98933586    6.62141166     17.25650240   17.24917587   17.25524396
    8    0.09040236   -5.32142037   -0.45915482      1.15064229    2.23673579  -10.99339744      4.33023747    4.33026595    4.32991993
    1    1.00512557   -5.30810344   -0.72677898     -0.22440974    2.39909423    5.71129799     17.25240028   17.25348806   17.25486327
    1   -0.00260675   -6.14984971    0.00294626     -1.76788287  -10.10442157    9.73787986     17.25175781   17.24829640   17.25653541
    8   -8.16615427    9.95061250   -8.02321223     13.48085846   -8.37275870    3.26807662      4.33055995    4.32998844    4.33029287
    1   -8.82734056    9.63733733   -7.41232511     -3.25408771    7.11476197   -3.61177992     17.25114132   17.25544674   17.25099156
    1   -7.35601609    9.91973042   -7.52196115     -9.11225904    6.20128030   -1.80950253     17.24871019   17.25506690   17.25174238
    8    6.89828353   -1.62259419    0.64740954      6.01066372  -24.83198706  -29.59540296      4.33036458    4.32955760    4.32943308
    1    7.62811369   -1.02190806    0.77014050     23.33909305   69.60481833   21.13791239     17.26218740   17.28140003   17.26127090
    1    7.21738255   -2.24360046   -0.00143375      6.55222887   28.94815329   12.54237652     17.25521216   17.26451541   17.25770230
    8   10.04444953    0.54140350  -10.05092587     -8.75874305   -2.22824852  -13.30581239      4.32997828    4.33014896    4.32985929