 BEGIN_INFO
   #
   # This is a XCRYSDEN-Structure-File
   #
   # aimed for Visualization of geometry
   #
   # Launch as: xcrysden --xsf .HICOLM.XSF
   #
   #
 END_INFO
 # estrutura final
CRYSTAL
PRIMVEC
      20.36647659       0.00000000       0.00000000
       0.00000000      20.36647659       0.00000000
       0.00000000       0.00000000      20.36647659
PRIMCOORD
  927    1
    8   -1.81761597   -0.04597589   -7.85818221      4.08435075    5.19813634   22.01838584      2.98280332    2.67606383    0.45060833
    1   -1.19052499    0.06981151   -7.08979549     -8.91336861   -5.19341193  -15.50156494    -24.36181976  -16.83516391    5.99998489
    1   -1.45652815   -0.81469045   -8.34070408      6.85263756   -0.49655416   -1.56250164     -5.25650520    0.38832127  -14.16314871
    8   -6.50720814   -2.55378071   -5.94015095      3.05048276   -5.15343901   -0.29124807      0.86560729    3.79803712    4.09463936
    1   -7.04260241   -2.90756119   -6.64006091    -14.27487381    1.63261760   -9.71288396     -3.17200272   -1.06140659  -20.14653954
    1   -5.77463286   -3.16894461   -6.06273555     12.21349006   -1.46998532    9.89331778    -17.71520498  -11.15683479   -6.64325662
    8   -7.47713373    2.61825268    9.07842110      4.48199822    3.98906756   12.72797360      1.46095414    1.77058500    0.48298360
    1   -7.86125920    3.51590396    9.09935744     -5.61509980    1.88921441   -2.51206944    -21.15713055    8.49700303   12.45583777
    1   -6.88703820    2.70190807    9.86758587      3.13741648   -4.84330161   -4.58452385    -12.71634808  -18.35596362   10.47677653
    8   -8.25731392    5.29461637    9.40730634     18.44246212   30.77911615   27.16485042      3.47427305    1.70263238    3.96260077
    1   -7.54721634    6.02842089    9.42017924    -20.34123131  -26.48933374   -6.09017914     -5.70605791   -0.73589192  -30.33667937
    1   -8.55035054    5.41124643  -10.02145419      5.13732832   -7.15122884  -15.46357907    -11.02601006   -4.63007211   16.04300473
    8   -2.79667214    2.84204869    1.04267352     -9.75087245    5.59650819   11.83506950      0.92726042   -1.07111385    1.63548041
    1   -2.13323927    2.26617452    0.65514125     16.12937883   -7.90251143  -12.31495193     -5.12182892    6.06088946   -6.40697058
    1   -3.42146407    2.15662283    1.33756634     -4.65626884   -1.86828194    0.65529667      7.07415736    8.51023156  -20.40070211
    8    3.55857019   -3.00482699    3.35388714      6.95737352    6.91172944    5.09103532      0.00880454   -0.79525093   -1.48521260
    1    3.57789294   -2.20234014    3.93834770      0.34146834   -8.93828070   -2.12508545    -17.12068238  -11.52904610   15.88712006
    1    2.82915482   -2.79827232    2.76959374     -9.28945018    2.71427081   -3.30569930    -20.69705058   12.02523748  -19.17742431
    8    2.50482251    1.88358779    7.65002296      8.88611702   26.45936998   41.61431772      2.96885388    0.93336241   -0.43317045
    1    2.22100749    2.70912341    8.19884921      8.52656873  -35.34769552  -24.12176642    -11.16394968   -0.76085361   -5.70578848
    1    3.02999842    1.39336267    8.36384460    -16.94008232    7.41073451  -24.00868932    -15.57511791  -11.94616339   -1.07911538
    8    9.85513351    9.65178258    9.35861696     13.29176292   14.61140695    8.69323679      1.98679293    1.41144292    2.75131186
    1    9.26998221    8.92144305    9.37732804    -18.08471928  -31.48207059  -11.11515484    -10.64856771    7.37298252    1.65228467
    1    9.19311648  -10.05565933    9.62968581      2.32294935   15.70823906   -3.38301394     -3.83156065   -2.37718965   -6.88291319
    8   -6.71941901   -0.61971922   -2.55673450      8.32368384   15.05198013    9.89592504      5.78164724    1.64254116   -1.17767267
    1   -6.46840655   -1.43887722   -2.10191860      2.74631128   -8.60831252    6.98733415     -5.83672047  -17.22767488   -2.47228336
    1   -6.53004092    0.00766801   -1.80671251     -3.55653095   -4.39098139   -5.37265936    -12.14115757   -6.88512721   15.71860592
    8   -8.06395422   -7.71117083   -4.93433125     27.89954098   26.09202396  -32.44698834      3.46936125   -0.84983998   -4.99310325
    1   -8.92445244   -7.36304733   -4.70026230    -16.82351795   -5.59476134    7.46201881    -19.09804670  -16.44662469  -16.02795573
    1   -7.92705248   -8.52682258   -4.47402232     -8.89324466  -17.15508191   18.22462678     19.12416214    9.51308038    8.14192289
    8    1.09999214    4.24660170    5.41859823      7.45825852   15.16515862   10.76498523     -0.72276780    1.95595847    2.37672404
    1    0.81608917    3.78095404    4.62178723     -6.24570001  -12.65996118    0.64874773     -8.56805013   -4.57780200   16.15511643
    1    0.73885602    3.70778697    6.16354485     -5.59333886    2.13538616  -12.47247734      1.91942620   -0.58651212  -17.29650768
    8    9.06888810   -5.25579547    3.39878088    -15.58984714   12.00178964   18.82039124     -1.53422475    0.30632949   -0.43519585
    1    8.35535452   -4.76070272    3.92210912     27.91182084  -13.06147033  -17.23567700     12.33025536  -14.86193309  -16.46892371
    1    8.57093109   -5.95447013    2.95603221     -7.63643518    0.10742802   -3.32673921     -2.67892494   11.66828201   -6.29496204
    8   -4.93287461    9.47610448    3.08125853     -8.61507258    5.70771334    2.99901308      1.62602395    0.66244305    0.32703189
    1   -4.75805110   -9.95518277    2.95987079     16.23613443    6.90471439  -18.56261656     -8.90957156   17.11873941   -8.26062028
    1   -5.47802142    9.67130287    3.85645698     -6.92092349  -17.24891033   15.40914097     -9.70979358  -26.31896993    7.33555951
    8    2.98573253    5.55811731   -9.03808286     32.66670992    3.85051678   10.53035578      1.46036400    0.85771336    0.14501798
    1    2.23910354    5.76888687   -9.57542257    -19.69192723    9.38774843  -14.25484365     -7.14276326   -8.65324779   -8.86422972
    1    3.55914607    6.36194207   -9.20364332    -15.27168505  -15.23572167    6.97091520    -19.80000438    4.18744327   -7.04850061
    8   -2.64756421    7.92486644   -2.85765516     28.70629986   -6.40394885   16.69698692      0.09652652    2.62202005    1.60316679
    1   -2.49347272    8.39428262   -1.98572148     -7.66821132   -3.94701798  -15.35028010    -13.99110545   -2.29016156   -6.21717110
    1   -3.54629353    8.11867602   -3.07993869    -29.68633178   14.43026860   -0.61012828    -14.42196666    5.87278875  -16.09862500
    8    8.59644283   -5.64310476   -0.57834254     30.28215233    1.54166849    0.10615540     -0.94725910    5.34667299    2.55954799
    1    8.27307518   -4.86711708   -0.10664920    -10.70743983    4.20070731    4.73720579     -4.97370239    8.29121982   -5.59174303
    1    7.79291575   -6.10447417   -0.84209001    -22.70085270   -2.58572655   -2.12794203    -11.32308709    2.22536864   -5.47316638
    8   -5.65900153    4.13892849    7.68461111     22.58042584   49.49736031  -22.12930846      3.22842372   -2.97636989    0.97313956
    1   -6.24065707    3.65947060    8.20100115    -32.20988900  -33.03884303   26.17793567     -5.11292414  -18.39750180   -3.68906758
    1   -5.04163256    3.48794359    7.37758359     13.68756443  -20.08248408   -8.13880594    -21.64824109   -4.50767928    8.51319922
    8   -9.45106394    8.46443461   -2.56058502      8.78434511  -13.97796333    4.07672684     -0.04427216    0.64913846   -0.68025911
    1  -10.14724759    8.12228303   -3.12463856    -16.09719939   -0.31236798   -7.06314698      1.47363323   -4.60102706   14.66111576
    1   -8.98206566    7.61335568   -2.41680378      4.37314656   12.15210597    1.81055669    -23.58692930   10.34612387  -33.52584834
    8    3.99671848    8.90564280   -1.08536754     11.62184532    5.74987435    5.58426413      1.63949379   -1.86494623    3.40415176
    1    3.39065984    8.64677217   -1.79791089     -9.14651931   -7.65142080   -1.67821131      4.00561060  -10.98830368    5.62746433
    1    3.51038858    8.55926176   -0.29078460      5.42506040   -1.93818804   -5.98112342    -12.64932984   16.60262943  -11.56360745
    8   -5.40232837    8.64621975   -3.10925843     -9.69690024   18.88427456    0.42571785     -4.01210607    2.47981245    0.97881982
    1   -5.93809352    8.20348711   -2.45346649      1.21278656  -17.66747267   13.49996646    -28.56111683    5.90053503   -3.36144923
    1   -5.93386831    9.47014725   -3.08071832     13.27743460   -3.87187458  -14.73607113      3.05208143    6.36298000   13.97878013
    8   -6.75501524   -0.44430629   -9.26792246     -7.82096423   -0.89683537    7.27942889      2.28621819    0.34845910    2.23386961
    1   -6.32212003   -1.24143947   -8.96227820      5.94790663  -13.50646817    9.24422278     10.05954547  -10.16463718    7.13391545
    1   -6.19697518   -0.30663812  -10.03470826      3.91635360   10.44054995  -15.06800993    -13.96842606    9.25860358  -17.16069824
    8    2.48986692    7.66550702    0.69761064     36.47403341    4.57949059   21.85734483      1.60564970   -2.65396481    0.81513228
    1    2.25550041    7.14411217    1.48491055     -8.62245705   -0.37928201   -1.23246786     -0.49341363  -15.71739626    0.10114957
    1    1.76179422    7.58425954    0.11200673    -33.07169987   -6.79371349  -13.17094642    -18.51851267    3.21388282   15.58308262
    8   -2.55346800    1.79619176    8.58001042      5.25052897    9.68235775    6.20721225     -0.12204935    0.72474702   -4.65370676
    1   -2.53672900    0.84613727    8.69959593     -0.26024512  -22.95483091   -8.24510719      8.50725641   -8.94666617   11.97723045
    1   -2.53980804    1.97428658    9.54710379     -7.50566379   15.13933541   -5.42517806     -9.44911101   10.04513540   -8.81225820
    8   -0.24751376    4.18619452   -8.95374968     19.78802621   -8.73581535    9.18536470      1.16442354    1.74313639    1.77192712
    1   -1.01965906    4.50172288   -9.41974331    -16.23033655    6.78041259   -3.69915494    -13.17223023  -29.01458485   -5.43071767
    1   -0.29016505    4.76496531   -8.16259904      1.61250813   -4.92192316   -3.64794690    -11.82506686   -7.72886225    3.41092377
    8   -5.16086124    6.16598042    5.85292762      6.09303457    3.53455890   -2.85667429      3.65241276    2.97900128    0.18202452
    1   -5.01547102    5.59798479    6.62208657     -5.86710613   -5.41681682    5.22335200    -15.06636590   -2.75851700   13.56372258
    1   -4.57466243    6.91934643    6.08302632     -2.22456498    5.82597587    0.09705323     14.84160055   13.09947062  -18.45139691
    8   -0.24415833   -8.22524155    3.15976616     11.76765496   31.01602498   13.03285402      1.72615285    1.82971531    3.43141578
    1   -0.25014947   -8.72805878    3.98817652     -1.97541492    1.66343229    5.04573116    -16.22226511    7.20555815  -13.05214469
    1   -0.33189301   -8.91363335    2.51529327     -8.45796996  -25.26212857  -18.30145099     -1.55684566    4.48309014    5.65465729
    8   -1.49185838   -6.32192238   -0.41288386     53.41365515  -12.45459878   25.40137776      6.83540713   -1.80761805   -1.72868407
    1   -1.25007842   -6.49310643    0.56479530    -21.29620495   15.63857289  -38.74004100    -36.66173207   12.48160068   24.62871672
    1   -0.55301478   -6.26751946   -0.80095714    -33.37555175   -2.57553441    4.76962567     20.74117412    1.29246749   13.78583039
    8   -5.01482661    4.25674936    0.23916991      8.22641376   22.98997874   -9.75207593     -1.20451645   -0.52443959   -1.00055863
    1   -4.04720450    4.31304809    0.44751613    -16.74392189  -11.89944007   -2.27744476      4.17384610    1.52270068  -11.17344661
    1   -5.36579224    3.67641933    0.92622877      1.63069330   -9.76675581    8.64066851      2.45992085   -4.95467463   15.81851496
    8   -2.87551602   -1.65194308    4.22305520     20.23731017   18.81741393   22.29518573     -0.21930203   -3.85012446    4.17418336
    1   -1.92925718   -1.82893024    4.04120159     -5.01833544    3.69779834    0.77314310     -9.63566084    6.22201455  -23.53710426
    1   -3.29899538   -2.21790821    3.62479345    -14.26064710  -22.52544200  -26.47341461      3.02334220  -11.25170443    1.07966410
    8    5.44040749    4.96250502    6.11029412     -9.95274443   -2.93792093   31.48966808     -0.62044547    2.91631160    1.67684007
    1    6.18482493    4.89839038    5.52599895     12.94457814   -2.18241477  -34.67135327     31.69682778    5.08113968  -23.87930505
    1    5.98397080    4.94857810    6.91592037    -13.27154699    4.95252089    2.65663496     19.32232593  -21.64114435   12.74629427
    8    6.93358263    9.18112252   -5.45684041      5.16986919   -2.24404558   -2.10919649     -1.80872126    2.65660637   -1.77189054
    1    6.26820735    8.89023870   -6.10396759     -3.44750275   -1.12232981   -5.82029840     12.04394991   -6.59027844   21.11897553
    1    6.56170517    8.70520908   -4.68852176      0.87111056    4.19879585    6.01606235      2.48973344    0.81503023  -14.66471229
    8   -0.51068629   -8.82933453    5.88422525      6.74354115   54.33250748  -10.33354721      0.22939774    2.39491113   -0.24592853
    1    0.38098668   -8.82531463    6.30557563     -2.48754212  -13.77343081    1.85988711     -5.06032963   -1.88808169   13.89423012
    1   -0.87363885   -9.67401129    6.02096655     -4.23090775  -41.87143476   11.82785188    -23.49871051   -0.40650378   -2.02339313
    8   -8.32520626   -8.32476689   -1.41019507     40.76275530   -8.01222436  -17.23402147      3.37716607    3.37094555    6.97471476
    1   -9.15037088   -8.19941565   -0.97804829    -33.87237257    4.60695445   16.89314517    -23.67006102  -16.88237861  -17.05890632
    1   -7.93604198   -7.43187635   -1.37515669     -0.52802970    6.68239037   -4.15268983     -2.21482904   -3.67571680   -5.42500889
    8    8.06565352   -9.08464487   -3.98024775      3.52948984  -15.10887504   30.20587602     -0.41831910    2.54056205    0.15833628
    1    8.11804948   -9.56329782   -3.11058478      6.24964467   19.71805013   -8.87004374     -0.83273067  -15.13930624  -22.88174436
    1    7.70444797   -9.83106832   -4.46804029     -7.32291338   -0.72301248  -20.15028690     -1.35661060    4.60704580    3.52062809
    8    7.58928003   -9.03636628    5.82577921     -0.14604513    7.46314858   18.82147701     -2.34312022    2.74983084   -0.24647416
    1    8.53816720   -9.03537453    5.51490286     -9.72596366    3.78977897    8.17065447     12.06246984   -1.48966259  -26.48943484
    1    7.69193160   -8.52412943    6.69381130      0.28647075   -8.61348950  -27.11867897      0.80867208    8.97766611   13.41579596
    8   -1.31302611   -5.85772907    2.33961757     -7.76026243   29.68053833  -11.57479084     -2.64786285    1.14560391   -2.16666682
    1   -0.82139636   -5.33830416    3.00310805      1.63803236   -1.83582634    2.23616992      3.18630811   14.39200127  -19.06712575
    1   -1.13021042   -6.74203473    2.61566612      7.22579090  -28.30768437   14.01400775    -18.41538580  -27.05063045    5.63876300
    8    3.04191330    6.10807619    5.21487074     -6.07976000    8.31169260   -2.91264485      1.67619272    0.88986185    4.41995734
    1    2.36112068    5.42635771    5.46028577     16.77050016   -1.14940463    1.45061146     -1.08970559   -6.92474306   -7.03014633
    1    3.90683954    5.76295322    5.53170522     -6.45435940   -9.28610379    2.90885366    -20.69790218  -17.38872219  -15.12202307
    8   -5.01827501   -6.05789848    8.12296639      4.74855815  -38.84789675   -5.78960193     -0.40980376    0.04983411   -0.91251184
    1   -4.93645376   -5.25943503    7.60450183      1.22323413   20.92668550  -11.52122292     21.22875587    4.02383997  -25.62641336
    1   -5.10280735   -5.70394890    9.00317345     -1.86163961    8.38764209   24.17022678    -11.17156094   -3.35804491   11.50459647
    8    5.90852741   -8.90663217    1.05464562     -8.98391026   46.55526785    7.60616633      1.01888302    0.75948404   -2.03851693
    1    6.40203996   -9.38359879    1.70556964     15.94355729  -16.99884437   22.03247947    -11.61783553  -14.97131020  -12.02788726
    1    5.72149423   -9.56458585    0.44447096     -6.99554813  -32.54262094  -28.24733217     -2.66693692  -13.99371118  -18.18426406
    8    8.36622077    1.29426480   -1.67850028     -0.30778198   39.13249385   27.12429281     -0.35322256   -5.59780850    3.01688908
    1    8.33157112    2.14393494   -1.10044451    -10.71392855  -35.63994538  -18.58232293    -35.27954155   -3.05415633    6.87139581
    1    9.29529116    1.41058203   -1.94156525      5.49027709   -7.89080475   -9.26412301     13.28649350  -27.05474160    8.41751135
    8    7.23702097  -10.00146627    3.24516345     -1.43172211   23.39252435    9.80749487     -0.10786068   -0.74592230   -1.72554830
    1    7.16231278   -9.73641584    4.17935036      2.22288082   16.20587349   -3.79151210     -7.79000569    4.79239919   -3.41871819
    1    7.16686324    9.45971865    3.46370535     -3.98884645  -41.02177148   -8.46080014     -7.71150336   -1.31757302   -2.37890436
    8   -7.79566606   -7.55911439    4.79473954    -11.74454861    0.58003966   -0.25180435     -2.83436041    0.70189159   -0.67198029
    1   -8.04881657   -6.59189868    4.81135343     10.97470858  -12.27407137    2.58510645     -3.81085513   24.35291973  -16.76901712
    1   -6.92502319   -7.60936064    5.23666733      0.19345546    8.64093220   -0.01667133     20.79251407  -30.38912744    3.64399390
    8    4.80215581    8.28865005    2.58872937      3.06303274   41.69366703   26.37218205      3.53843894    0.64882345   -0.39361569
    1    5.38586519    8.14615576    3.36993608     -2.76291367   -5.75454036  -12.87748539     12.05020238   -1.45605847  -15.28775348
    1    4.67320076    7.44055768    2.22002042     -0.10389783  -34.45700459  -10.89259576    -17.49803247  -13.35770066   -8.34767594
    8   -4.59433265   -1.06539441    6.19622553     -9.43851497   -2.92630698   -3.12930755      0.73418321   -2.05128352   -1.04809310
    1   -3.97632249   -1.31326904    5.49695273     13.99653536   -3.43335626   -5.38620654    -17.72500825   -2.84845045   -6.86133096
    1   -5.23744852   -0.56612644    5.64538319     -4.67445203    4.09663871    6.59213168      1.49884557   -3.86453602   16.25386984
    8    8.71903134    7.28176235   -4.00007791     12.04323851    7.19238089   13.98842861      2.13697649   -0.42097113   -1.34332597
    1    8.84864381    7.75930029   -4.82833365     -5.42935934   -2.12479060  -10.78163543     -6.87352342  -17.85919349    8.62175577
    1    8.13198558    6.55909149   -4.24831122     -6.91934172   -8.94732753  -11.22719209     22.11873812   15.78071886    3.74438807
    8    0.03855755   -1.65219759    4.43529816     15.72095944   28.77249277    9.15604797     -0.46352648    1.46627753    2.80543174
    1    0.11428666   -1.48040045    3.48437939     -3.93303866   -3.95471666   -4.65132619    -20.08069060   -7.10706187  -12.89624811
    1    0.56249544   -0.84717147    4.76765486    -14.96200267  -24.83747709   -3.92300462     -4.59138218    9.35827512   -7.60621549
    8    1.51215074   -0.81823930   -8.17873046      1.25021656  -19.32775253    9.13426821      2.02951772   -1.47181677   -2.27105474
    1    1.36289624    0.12863919   -8.32522468      2.77994773   10.04338766    4.70834519     -8.96800511    8.13662091    1.62700235
    1    1.74014525   -0.87203326   -7.23278490      0.86308118   11.88592573   -6.28207922      2.97846268    0.75623271   12.21932393
    8   -5.12888337   -3.76038578    6.86220287     10.51918164    8.68102390  -21.66254018     -0.63939440    1.31619253   -2.00872488
    1   -5.85058310   -3.59618615    7.46822099    -14.18957578    2.25403524   14.95368422     -8.23688779   -6.55272227    7.62117825
    1   -5.06871583   -2.87485797    6.45746318      3.00730859    0.42854069    2.77293366      1.04527143   -5.17647046    1.58621673
    8    0.31127169    9.08508033    3.65725357     10.56053902    9.59724439   10.93023260      0.43459153   -0.59122037   -1.38077294
    1    1.08248767    9.70451103    3.53175417     -2.05881738  -19.13607265    7.21513570      3.65095129  -18.57942510   -7.78926866
    1   -0.05742196    9.15410492    2.78292798    -11.25668407    1.65325380  -18.30273486      1.82679433   -0.94393508  -11.94061272
    8    2.75050213   10.01765909    3.48580857     -2.87113451   17.59637861    1.59279246      2.04997622    0.94775396    1.57310274
    1    3.43584722    9.41924579    3.13695752      6.63520410    0.11508922   -9.52430138      1.72915172    3.82659955   -6.67142889
    1    2.97354494   -9.46944277    3.07598978      7.00207272  -15.83201848    6.66004944    -11.17577165   -5.87279098    4.54760390
    8   -7.83455922    5.37633702    5.44887201      1.05164130    6.83672510    5.02698035     -1.42401339   -0.68639814   -0.80865062
    1   -7.10338924    6.02287761    5.56690391     -3.55223573   -8.31426496   -0.33187383      9.89274294  -15.43659722  -12.76488335
    1   -8.51845995    5.73114824    6.05514496      3.43293011   -5.26126967   -2.95454410    -14.06012024   -3.25854111   -2.72109415
    8    9.62226767   -6.95264885   -4.82174528     11.93855579    0.85457195   10.48864576      1.90638690    2.57323724    0.28014340
    1    9.16106893   -7.71204980   -4.43071765     -4.15697254  -13.63039129    2.19037064      4.26653978   11.86587979   -2.20212404
    1    8.86113436   -6.50369688   -5.18008694    -15.19588901   14.79580356   -9.10389971     -6.45577834  -16.42392134    3.29250106
    8   -8.97241895    8.50360576   -8.80760114     15.44484583   15.60573348    6.42298047      3.12116278    4.00599325    2.47791434
    1   -8.39128081    9.32436954   -8.76358963     -9.83597436  -24.97651542    3.16571359     -0.90300758  -15.89224126  -20.48527320
    1   -9.61508200    8.79284822   -9.45123502     -5.74874917    5.31224449  -13.19494991    -18.36634990   -3.29318934    5.03254313
    8   -4.39263530    8.08614883   -6.28464674     -3.89010675   15.16384648   10.12951257      1.81966635   -0.96149979    2.50048460
    1   -5.12901667    8.68389785   -5.90873486     19.50932225  -26.97405199   -2.90348205      1.60731101  -11.84632145   -2.49989253
    1   -4.39844323    7.25993141   -5.74293861    -11.80458130   12.99388923   -1.80838145    -15.97495387    7.78666265   -1.27890350
    8    6.62670347   -7.88317539   -6.83737813     16.52340424   19.52563814   21.57682231      2.96021406    0.07379553   -1.30150574
    1    7.06257088   -7.04710913   -6.46800633    -13.52932415  -22.14263227  -16.83980558     11.25689627  -14.04105333  -14.13295217
    1    6.38949543   -7.62273035   -7.74164680      1.29203022    5.13983532   -6.70483108     -1.00926722  -10.73527324  -14.71030715
    8   -4.33200793   -9.30561508    0.09666360     16.15308293   -4.23847365   19.61945133      1.23881385   -1.19265027    3.16423211
    1   -5.25093111   -9.57373320    0.14729580    -18.74436647   -3.56094269   -4.57026358      8.20806305   -2.24246883    8.01026924
    1   -4.23383404   -9.05672039    1.05894635      7.87770585    6.39072389  -18.95335003     -0.24094120    3.83493838   -6.36476611
    8    1.21394202    1.96663427   -7.87494753     -1.90944907   -7.80639456    5.45616974      1.37116923    3.27490061    1.70060531
    1    1.20441403    2.18144752   -6.91823362      7.53365926   -4.94497572   -3.02094257     -4.94463550    3.33796392    2.35869057
    1    0.55039515    2.58898813   -8.17784142     -7.44698011   10.64719985   -9.02516618    -17.89399584  -16.35085506   -7.72844130
    8   -4.66913223   -4.91921892   -5.82481645     12.64354915   18.71154247    4.54321544      0.04242414   -1.36916670   -0.61240904
    1   -3.85358068   -5.10245557   -6.33208294     -4.31477520   -3.42337144   -0.17105222    -24.21723692  -11.48322328    6.62420682
    1   -5.30844646   -5.48423838   -6.26760648    -11.37140830  -10.93145733   -6.71551463     18.33053849   10.27827962   -3.17975021
    8    1.39213901    2.09845394   -5.08588067     -3.60380494   24.36275692   14.05118778      1.27876721    2.74310634    1.17435606
    1    1.78213075    3.00377298   -5.21280808      3.84600683  -13.70815542   -2.61795882     15.42579813    5.43747515   -5.88663366
    1    0.92322925    2.28304260   -4.23856545      4.43515886   -5.29974359   -6.83729339     -8.24984479  -18.36580561   -3.78764398
    8   -5.21815241    5.61941303   -5.13953114     16.10675225   14.10322233   16.29086169      2.99849695   -2.43503340   -0.38367545
    1   -5.32429566    5.68283979   -4.17580985     15.81138537    5.25990728    5.26703753    -10.24794865   -8.25728972    2.14125768
    1   -6.04630512    5.18590657   -5.22764735    -29.39729373  -20.92577337  -19.74981352     -9.98893534    6.28754984   -1.23367075
    8    6.23531775   -1.10988524    4.54997284      2.77836986    2.02159814    2.81969451     -0.97332516    4.09783295   -1.72897179
    1    6.09838985   -0.61579047    3.72980234     -3.07077658   -0.04928137   -0.62928585    -13.81105957    6.22300455    7.80439542
    1    5.40633348   -0.94342687    5.02494044     -6.55223351   -1.86672856   -3.85954292     -2.19864191  -11.30107826  -11.42336256
    8   -7.45260917    1.37674058   -4.29620323      3.00348635   40.34091341   29.07570548      1.02352440    1.14168560   -0.18041724
    1   -7.22002292    0.65792659   -3.70103132      4.92945059  -19.03342681    1.36816270      0.17490814   -1.77298744  -15.75298189
    1   -7.60256349    0.97701395   -5.14043511     -2.16069897  -17.17421875  -30.11291356      4.10504665   -2.06938356   15.52713892
    8  -10.11777177   -2.67065875    5.39641785     29.52538251    8.34021692   36.37779842      0.41529276   -0.68022220    0.07855602
    1   -9.94243916   -2.46106424    6.35102799      7.44456003   -1.65551004  -19.53919210      0.05919249  -12.54306697   -1.85429859
    1    9.34405858   -2.93549295    5.49906538    -30.00158185  -12.06743377  -10.55642284    -11.10216299  -10.96867004    3.08897122
    8    9.36593134    5.08355556   -8.35120690     39.61705394  -18.26372656   -5.92534337     -4.43852890    0.42592844    0.95135647
    1    8.48930903    5.35052886   -8.43562324    -46.36853949    6.52835517   -2.38867461     -7.79884491    4.49444810  -15.16067680
    1    9.72468472    5.88084485   -7.98938281      6.13276979   16.48016638   12.18552965     13.67363936   -3.18959798   19.64252918
    8    7.13898182    5.10402049   -4.85232137      9.78455142    9.37894518   -2.43631067      3.24774802    2.71863951    0.96459432
    1    7.41445572    4.17410725   -4.75086505     -1.80874911   -4.17440009    4.44158466    -11.79325710   -3.87262132   13.37269742
    1    6.37325032    5.14871909   -4.25593217     -8.70959245   -0.22011128    3.06273082      4.93564135  -27.32249674  -27.11529866
    8    6.85735778    2.69098073    2.51742309     21.73887226   16.48680279    8.86758895      1.79883678    1.46806731    4.04216298
    1    6.33370243    2.01987036    2.06800831     -3.52141685  -19.16484838    6.86093081     12.02052734  -14.69538543    6.52996715
    1    7.44664479    2.19995622    3.18073043    -18.97389401    5.63189470  -17.71008508      0.91261252   12.88517475   -8.41119546
    8   -9.94099330   -2.90729891   -0.28622498      3.19446175   -2.33935903   -8.57090151     -1.77147049    1.76031345    0.95718097
    1    9.66651732   -3.26754354    0.19381781     -4.30539533   -1.37740171    0.66095077     13.90417426    1.05770941  -17.80061143
    1   -9.99594912   -3.34862202   -1.15514803     -0.17952266    4.70775837    9.25641442    -10.93051685   -2.81259469   18.94179434
    8    5.72214382    1.28869275   -2.45575770     15.33183252   -9.28373194   14.70400936     -2.60584237   -1.17422138   -0.31308995
    1    6.69074418    1.29252370   -2.22549030    -14.25145602    1.20114240    3.71305350     -6.64999172  -12.66088088   -5.32280497
    1    5.81930549    1.11741217   -3.37947334      0.19913648    0.54030298  -18.44145864      5.37025805   -2.62449691   -8.19553398
    8    4.91211097    7.87869501   -6.76928219     19.99557318   -1.21520713   14.57750978     -0.40945925    0.15224416    1.67940246
    1    4.30923538    7.46747336   -6.10956819     -9.23600176    5.05249147  -14.24354765      0.82186704    2.63382717  -39.52889018
    1    4.37801532    8.22533028   -7.50097542    -12.99414120   -4.89415239    0.23022810     17.71376816   -7.97190888   -2.79068203
    8    1.10492250   -2.63842217   -5.16562040      8.76611895   36.14780951    2.40624504     -1.91100981   -1.15877002   -0.16795964
    1    1.19235275   -3.20701785   -5.89028874      2.77154363  -37.90088219  -29.15945254    -34.95413849  -11.46379980  -12.94187741
    1    1.83565994   -2.04165056   -5.46026931     -6.63353811    3.28381530   23.84812823      0.81721238  -13.44610623  -11.21202873
    8   -5.80968602   -3.41905212    1.57584502      4.00388573    9.96175966    4.11851580      1.59190855   -2.87612325    0.15995209
    1   -4.80361394   -3.47316170    1.64133740    -27.01459284  -23.68768894   -5.00979510     -9.11300444   -0.74436578  -10.03790509
    1   -6.21160293   -4.32778063    1.50657671     26.30351783    4.56117932    3.60164799     -8.29960134    1.38683989    9.48376286
    8    3.63769410   -7.10316194    6.20826003     -0.05083626  -21.56999214   40.20158377      4.59891310   -2.47685679    4.35598248
    1    4.48519894   -7.12374899    5.74751656     12.93443327   -0.51128145  -10.77063481    -14.83496809    9.07001332  -10.05803649
    1    3.11528241   -6.62220254    5.57407635     -8.35215506   18.69617247  -18.51705401     -1.77549923   13.24162169    4.32139980
    8    4.39116705   -1.35300273    0.16466534    -16.10379068  -20.45840592   -5.19920130     -3.52449127   -1.79180110   -0.35253402