 BEGIN_INFO
   #
   # This is a XCRYSDEN-Structure-File
   #
   # aimed for Visualization of geometry
   #
   # Launch as: xcrysden --xsf .HICOLM.XSF
   #
   #
 END_INFO
 # estrutura final
CRYSTAL
PRIMVEC
      20.79379011       0.00000000       0.00000000
       0.00000000      20.79379011       0.00000000
       0.00000000       0.00000000      20.79379011
PRIMCOORD
  927    1
    8    4.76514535    2.98753112    1.99438686      0.46217700   -9.73600377   -8.12175079      2.47112043   -5.47043281   -0.78850329
    1    5.05162300    2.83828409    2.89926864      8.44913113  -11.79697110   15.73418501    -13.79523103    6.03538950    5.64669472
    1    4.61378753    3.91652335    2.11210951     -6.63776131   25.27950038   -3.67110814    -13.64993860  -14.09694777   27.86767420
    8    9.21942125    7.45476890    0.71811372     12.99113953   16.49521185  -18.59416997      7.31758293   -3.68156155    1.75668380
    1    8.45431776    7.02204656    1.07548244    -21.23096982  -10.51633210    8.26386658     -1.84204524    8.68855759    7.36411220
    1    9.90726729    6.99668138    1.20657059     14.76455688   -2.70922447    4.50126885    -22.16067032  -15.58626785  -12.60273324
    8   10.06385851    9.99321089    7.20337328      9.41615474  -13.51732878    5.96800389     -1.36932455    2.42405511    1.59049714
    1   10.11506936  -10.27694017    6.37888237     -6.80065939    4.63308409    1.62279123      0.24042550  -13.55037134   -2.77377847
    1    9.49226795  -10.27495981    7.80069113     -8.07630358    4.10115249   -8.93566660      8.73839373  -14.89997092    1.84513269
    8   -1.26490469    6.90615797   -9.48341410     12.71165717  -11.76417981  -30.87856839     -1.72757658   -0.10336553    1.37479336
    1   -1.72886326    7.22766711   -8.73460009    -26.98882448   15.45624128   26.43524037    -14.08246782   17.60487852   14.72576672
    1   -0.59382620    6.40536484   -8.99571363     12.92189107   -4.88151739   -0.11595795    -17.32719045    4.05859821  -22.32887387
    8   -9.54768327   -8.76988382  -10.27425534    -30.26747822   50.53449389  -16.21311737      1.94297440   -1.63640537   -3.10069129
    1   -9.22131593   -8.08469452    9.84610520     -0.23879175  -29.92919905   19.27260697      9.35155035   -7.33004781   -9.05413615
    1   10.35495043   -8.29632867  -10.01924920     41.04301930  -34.48637921   -4.91226676     14.74848103   -6.64864699   14.66470148
    8    4.77728854   -1.81105826    6.63429875    -19.53367022  -34.72763308   -6.80223742      1.24188029    2.41813251   -1.84981835
    1    5.48537688   -1.31106209    7.02897580     17.61270801   17.64283413    4.58113640      0.27876682  -22.30754878    7.96415300
    1    5.25115237   -2.65727322    6.41308490     -7.42803175   16.97830256    0.27242500     23.15922341   14.13759720  -21.40812043
    8    3.45663306    9.83097608    7.38366457      7.47963740   -1.72661736    1.13506385      1.14517163    0.76412466    1.31939393
    1    2.70613849   10.26853798    6.97478329    -16.49767940    0.05409651  -16.86473637     -1.90293851    3.86928181    8.57390354
    1    3.50996592  -10.37062487    8.13198022      2.85631508    6.43648035   20.33600227    -18.33765362   13.74310792  -21.10445570
    8    3.46428722    7.72226194   -5.44913692     17.04430469   27.17168369  -17.60026316     -0.98625783    0.61291367   -5.53333589
    1    3.73332282    8.65514538   -5.25283103    -16.04333526  -11.59389252   19.32848872     13.61968828   10.81024685   17.97124038
    1    4.09466103    7.66365848   -6.20431401     -4.46047581  -21.70807019    3.59843216     10.61640101  -15.69031339   -1.25489735
    8   -2.86920057   -6.05542415    9.54118418      5.32092757   36.78761434    4.84992989     -4.55739966   -2.91008753   -1.28393829
    1   -2.81215824   -5.05563292    9.71387872     -6.71526605  -35.61164804   -2.98007981     -1.46227329    4.96447709  -11.71761939
    1   -2.08909894   -6.35141293   10.05833153     -1.98999589   -4.66443584   -5.02334335      2.89669848   -9.26075498    2.34020250
    8   -2.55715208    1.89129255   -7.68203708     -6.03458252   17.36789133   10.57242618     -1.26222705    2.08836109   -0.63227044
    1   -2.73404071    2.62276392   -7.02419252     -0.78165896  -12.09751761  -13.08898957      9.61513917   -0.81003322  -13.60541506
    1   -3.08545729    2.21525281   -8.46310189      8.67247756   -4.45524342   11.38333968      5.05343721    9.24340533   -4.56833883
    8    1.50863326    5.06275771    4.60136577     -1.91363486   32.61608851  -10.38470507      3.14134842   -1.82601459   -3.01109961
    1    1.68879393    5.82031124    3.94606135     -6.53298807  -35.69244058   15.55385076    -13.88282779  -32.34019810   44.13274673
    1    0.87356574    4.47891517    4.11508757     13.83947973    7.25419132   -2.78616853    -18.07191711   -5.10953145  -12.90821056
    8    7.13599583   -6.62671341   -5.11229547      9.94395112   -0.93442366   23.37656765     -2.60933165   -0.07169880   -1.85519600
    1    7.71960362   -6.99021203   -5.80154068      3.06576335   -4.37408986    2.57552721     14.76449780   -4.84320108    7.46553447
    1    7.16702149   -7.34812551   -4.40976225     -7.27721882   12.36854564  -29.21582204     -1.49734309   -7.95675804   -3.85284222
    8   -8.92597269    8.58165985    3.56674947      1.98913960   -3.04489238   -7.12573037     -1.06943978    3.30519568   -3.72210293
    1   -9.04463622    7.77639304    3.00705902      3.88028534    5.97362800    3.54202117     16.90784368  -10.71353230   -7.64543095
    1   -9.11522435    8.20872468    4.45853943     -0.26664369   -0.17472532   -1.75367883    -12.87186132  -10.09455323   16.76464474
    8   -1.86077294   -8.17928728    2.74193105     -5.17657308   21.83983494    4.06735665      0.08088422   -0.66924363   -0.52605940
    1   -2.34106727   -8.75148630    2.13555934     -8.00558159  -10.99433929  -10.66088715    -13.08060684   -9.12319256    4.15001437
    1   -2.52760399   -7.45169857    2.80844117      5.04263937   -6.41234107    0.74770989    -10.93461225   -2.83129667   -6.63327655
    8   -1.72522149    3.82042157    6.90625803      1.27614398   45.77172104   80.63308641      3.55715548   -0.82062598    0.89530958
    1   -1.52600907    4.26272855    7.85130521    -20.31304229  -24.32937287  -65.39502141    -10.52818542    5.59252342   -6.36266851
    1   -0.86459548    3.43568417    6.80851351     21.66770736  -17.18559007  -17.53340709     -9.19503696  -15.77203304  -22.13203648
    8    2.82550445    1.05759973    1.59993789    -23.98726732  -47.00672393  -16.86298140      0.25057873    1.50768402    3.42483968
    1    3.19638676    1.90882155    1.71160463     20.64499428   32.58420375   -4.62448213     17.18935887    0.96904432    7.59139569
    1    2.75943035    0.95465095    0.59862176      1.51966631    7.15440564   25.61991164    -17.69430587   -8.94601304   -2.21631102
    8    2.09668205    1.78727833   -7.79783277     -8.73391202  -17.20556137   -8.87402251     -1.14731895    2.71587971    0.05365988
    1    1.23505052    1.39678888   -7.56074308      3.33167834  -15.56035231   -8.96681243      1.68255841    8.23628228   14.05679225
    1    1.95934644    2.54534241   -7.25988125      6.72077470   31.36829374   12.60824599     -1.70397959  -22.60885549   12.93509279
    8    6.13660474   -0.01957604   -7.74856869    -27.67734824   22.46158672   14.62553181     -2.43398714    0.86208505    6.41368899
    1    6.70541375   -0.69940337   -8.07363582     21.06569210  -20.08000555  -16.88003081    -20.95815965   -7.23926771   21.10806588
    1    5.45032918   -0.60588414   -7.34830109      9.31063747    6.01901126    1.09113528      3.99457223   -0.18073295   -1.69295484
    8   -0.44758586   -7.01914863  -10.09686854    -56.10821997   10.33406303  -26.69193204      0.55387931   -0.73952335   -2.95375070
    1    0.17665678   -6.72179330   -9.47959183     45.99534928    1.07626669   20.29435445      6.95769701   -3.24088588    6.02054937
    1   -0.22886555   -7.93700339  -10.32250143     15.46754847   -7.55068443    3.71791496    -19.63327414   28.77387148  -19.69625671
    8   -4.23247932    0.26981823   -2.68415344      0.00546984    7.07514717    6.73999146      1.46438852    0.19766017   -1.30192467
    1   -4.05328627   -0.31884378   -3.42046723     -2.44597838   -9.36267499   -9.56382557      2.41231698   23.60665561   19.49715074
    1   -3.48673043   -0.00141543   -2.11594024      3.67285168    2.57743954    3.58546136     -4.06883071  -28.37992591   -4.24207843
    8    7.06682375   -9.86480701   -6.49814676    -13.07199918  -29.42607876  -36.99096403     -4.31754952   -2.85049515   -0.27582210
    1    6.58251929   -9.83477140   -5.68276529     -1.46689187   13.04769032   24.78656045     11.78420736   -1.19383965  -12.29885273
    1    7.90464638   -9.42188308   -6.33331187     12.19963216   15.53206293   10.55189411     19.11242216   -0.34551724    0.51751979
    8    1.44870113    3.99117237   -6.24074728    -51.62455496   -0.68974363  -40.61068924      2.12792598   -2.41947825   -4.84708691
    1    0.67432243    3.92341775   -5.65236988      0.43019411    5.86315862   -0.66682369    -19.95240445   29.27485173   22.04472332
    1    2.12489425    3.94044726   -5.65214876     52.33755718   -3.53642259   46.04970594      0.16643667   -8.79708085  -11.97974884
    8    6.19253546   -0.42156802    2.92807580    -32.09758088  -21.02621224  -16.32225616     -1.64704879    2.97873784   -0.04287872
    1    6.44687948    0.07690429    2.12941974      8.18840380    3.04314174    3.30433004      5.63557454   -7.17677306  -18.50189796
    1    5.33484860   -0.85617246    2.59385120     29.62742910   13.55038994   15.37769653     15.10118864    9.76778247    4.09455802
    8   -5.27047287    2.02325601    4.81970613     -6.26775215   23.79996954  -45.69553837     -1.17843639    0.30700317   -0.55127851
    1   -4.91751399    1.71757367    5.63476274     21.39508076   -1.23628369   23.54339963     26.49191880  -15.20564363   21.32240211
    1   -4.58891768    2.67896950    4.46469195    -12.32802785  -23.58295831   23.95256645     11.96436062    2.91984164   -1.93845977
    8    2.26999115   -5.50395649   -2.87117867    -42.09574033   21.41241674  -47.56942126     -5.09064260   -0.21932872    2.66849378
    1    1.87394649   -5.09676536   -3.75760066     30.06873157  -25.09038444   50.35765615     23.13060724    9.64354180    4.21369445
    1    1.40945681   -5.77545053   -2.45398281     13.40742682   -0.93133201   -3.13053795     33.07267662   -5.48296549  -20.33572609
    8   -4.04305929    2.79158025   -9.73975930      1.49844187  -31.57543561   10.36331958     -2.26161648   -4.74793795    4.41697885
    1   -4.04117211    1.93646851  -10.25529894     -6.52032725   15.83115347    3.25093759     -7.45867881   24.06301343   13.99470686
    1   -3.88406558    3.44257898   10.37289263      1.22284421   12.87408831  -18.57126382     20.78060268   -3.53339410  -15.21467210
    8   -0.88473390    7.67679276    3.89986545    -13.98715022  -39.67060111  -27.69212513     -5.47653352   -0.30914702   -1.68704905
    1   -0.75516788    8.61433330    3.89270370      5.56914196   25.16570458    5.48879267      3.17479183   16.77676402   12.64040132
    1   -0.78578998    7.38083755    4.80464720      6.18990044    6.05126876   18.92389986     27.11936181   -3.11672582   30.21559090
    8   -8.97953545   -5.42339089   -2.13245127    -11.89622865   20.06519585   27.92066778      1.22374474   -1.63779517    1.17506491
    1   -9.18438712   -4.65316032   -1.50196048      9.94857670  -14.98180429  -21.76312030    -23.79657000   -8.00900186    0.23985330
    1   -9.51043633   -6.09425976   -1.63840275      4.80682285   -7.11520683  -10.63082023     -2.73415944    7.31840806   -0.32024114
    8    2.79855721    6.43679983  -10.03819096      4.96054540   38.71029979  -45.20164996      0.00644912   -4.60666738    0.24561381
    1    3.42234870    5.76699969   -9.83979653     32.95105167  -23.55872550    5.65581599     10.90185637   11.23499719    9.05142546
    1    2.20211584    6.26914547   -9.36272949    -42.26771390   -9.70911168   39.26244588     -1.97978501    5.21570425   -2.57777713
    8   -1.53000239    9.14560143    9.69478920      1.63809060   -3.11322635   -8.97038434     -1.75749795    2.30755746   -0.10213396
    1   -2.47901780    9.20243743    9.89502738     -3.05458754    6.23985551    6.20350823    -11.60887617   17.22401572   -5.86457284
    1   -1.34269692    8.28676540   10.11702714      3.94555924   -0.44725256    5.48962766     20.45489672  -27.07397369   11.31310559
    8   -3.56847750   -1.91343407   -4.42538110     19.49442532   22.99075740  -24.68561427     -3.39190039   -1.77239646   -3.72417979
    1   -2.57228956   -1.80687980   -4.30006716    -26.07045698   -3.17615042   -1.55751148     -4.58741586   10.23839610  -23.98763991
    1   -3.66958642   -1.44598750   -5.31559380      2.08129972  -14.17345645   25.31662929     30.07233571  -19.44146581   14.81307917
    8   -8.69555184    3.11813271   -8.38096206     11.60752475   -4.25314878    5.14234607      0.54628980    0.11300604   -3.17353339
    1   -7.71587180    3.32480077   -8.29529673    -17.62328820   -1.84290954   -5.94084835     -6.07819598   -3.37511313    6.52589722
    1   -9.03682455    3.65913000   -7.63073084     -3.59985537   -2.48893531   -1.01434732     -3.95433295   10.41634374    8.89158590
    8   -2.66721309    5.70828426    2.93257832     25.33060896   41.17577230   31.56000057      1.96988801    3.82539693   -2.72358200
    1   -2.01673102    6.43076152    3.27541892    -26.54853305  -30.06176263  -17.86806172     -3.86558592    6.18481645   11.01734337
    1   -2.29038824    5.47538338    2.06997429      3.81475853   -5.06747505   -3.93814495    -29.46475571   13.59626205   17.46078597
    8   -4.97586910    5.89500534   -7.09641224     28.66029679  -16.71775776  -21.36641855      4.03591107   -1.32957337    1.68165986
    1   -4.28846575    6.54517336   -7.37901135     -4.19299667   -8.01522434    3.18165534     -2.48529169   -4.74029693   -4.92911307
    1   -5.54804198    6.46715135   -6.61972461    -19.68700159   23.34327220   18.37566558    -11.00328013    2.88072222   -7.94198219
    8   -0.94298136    9.22474009    6.97598576      5.81620280  -16.07281440  -16.00622608      2.24518485   -1.95792656    3.91551760
    1   -1.23839553    9.26696654    7.90721161      5.62073949  -10.07699721    4.56409907      0.59200581   -7.90161708  -39.30678100
    1   -0.67845762    8.26492339    6.78830784     -6.89446890   25.91627484   15.79884078      0.56697635   12.61019239   -7.56231999
    8   -9.00872438    6.30070514    1.89933715    -24.23515901    9.54222324    1.23212959      0.81806744   -2.50224484    1.33358674
    1   -8.24826863    6.28702846    1.28993231      6.89827337   -4.05221398    4.15734670     -0.52828065    0.62485765   -6.85876748
    1   -8.93728449    5.47662570    2.42218887      9.76229053   -0.31403181   -2.65887105    -14.33802615    3.90102366    6.65493174
    8   -3.88396401    9.52044597   -9.70978402      8.31952021   -6.30535497   -8.56130209      2.36771763    2.05469807    3.41320330
    1   -4.12905081  -10.34784818   -9.91941249     -5.84717025   -5.79541318   11.60823281    -13.37084513    3.89136929  -31.21334944
    1   -3.71543478    9.52906681   -8.73930424     -9.91344597    9.14232883   -8.44605186    -20.41733361  -14.66149059  -12.45139986
    8   -8.95633590    9.60572766    9.21257047    -55.01226963   41.90819731   17.77110906      2.96543656    1.73958490   -0.67037427
    1   -9.80019625    9.53759062    8.65808420     35.47863193   -7.23407141    4.24390903    -24.24886282   -3.29365540    8.76067545
    1   -9.32990937   10.37671748    9.78721369     30.10967775  -31.81793243  -20.39391814     -0.59188025  -12.52601336   15.05988621
    8    0.78176196   -1.74039845    4.29930578     -7.34679975   19.35511564   -0.62045598     -2.10208271   -2.11986252   -1.08607561
    1    0.43279089   -0.82415904    4.11040424     14.85379855  -19.60869252    3.77423156    -23.78904191   18.00563943   -5.29725300
    1    1.44020987   -1.56741029    5.00191937     -4.26866080    5.65798740   -1.34920264      5.76697848  -14.80482201    3.27944792
    8   -4.59140230   -9.21794153    6.38248482    -26.71296864  -32.20903793   19.15752430     -0.43459027    1.81475104    1.10921529
    1   -5.34394494   -9.69623780    6.89757924     29.18705875   19.57555806  -24.91465159     -1.79188731   -8.57261355   -4.82829106
    1   -4.07670750  -10.02055764    6.08694554     -7.70739648   12.63825856    6.85467302    -24.23775050  -27.28295786  -12.36446605
    8    0.27599622   -3.61938427   -9.13304702     -0.88526945  -17.43872008   -1.64609896      2.68275656    2.12730416   -3.10549965
    1    0.57161676   -2.96232431   -8.50052801      1.89868781   16.07437623    7.66421500      1.47598930   -2.45368249   -5.05522306
    1    0.76787955   -4.39044867   -8.79540003     -2.46161611   -2.42980070   -3.63964930     -8.42065586   -0.00327726   21.68905492
    8    2.11948241   -5.26969919    5.75212305      0.59719456   -4.62809562  -39.68149994     -1.69353268   -1.57068188    3.55981644
    1    2.59171278   -5.25936573    6.55043881     20.31418250   -3.21831672   35.55322608     -8.30099225   -0.18692096   -2.48760809
    1    1.29908843   -4.89258119    6.03088730    -23.31029501    7.36925768    5.09518520     -8.25124496    3.80431714   -4.08846164
    8    5.19616633    0.49637087    9.66153027    -79.39367162  -26.60068488   16.72903195      1.57543746   -2.36371610   -4.49603801
    1    5.66387784    0.29123548    8.89345704     35.13348185   -0.20195713  -36.96423704     -4.52773796   -2.43853940   15.72007834
    1    5.74523621    1.01639516   10.19440090     41.13391543   27.68369016   13.93536468      3.29387980    3.89732592    5.57932812
    8    8.81495968    1.37566047   -4.04228714      6.74997721   19.85240896  -32.00054613     -1.37463141   -0.35105903   -1.27338093
    1    8.37350738    1.51401757   -4.96288535      8.37493067  -12.64422437   39.07844347    -10.29469016   14.53283232  -10.43880669
    1    8.18644682    0.83153688   -3.52923295    -10.56576176   -5.94252459  -10.49123437      1.17339949    4.46356254    9.32437851
    8   -9.67913245    7.60403833    5.97294913    -12.22363421   19.99507467    3.68303531      0.98128337   -0.84612348    2.05621083
    1  -10.02902012    8.40353498    6.45543825      8.52041169  -13.67948502   -5.11958855     -9.50539571    4.48955822  -13.77417137
    1   -9.37960272    7.03767545    6.70981116      0.48414721    1.44633176    3.38833554     -2.15756040   17.74858373   19.82127018
    8   -8.27237454   -2.61817364   -9.33155514     -5.09879562   23.74669719   35.65895430     -2.47492581    1.47266172   -1.66993406
    1   -7.50576944   -2.58926065   -9.91100266      9.74207802    0.11561636  -12.81233665      0.22196688  -24.04492166    4.57209129
    1   -7.96311529   -1.95836291   -8.61704827    -10.16882321  -22.40996872  -24.00919061     -8.06311170   11.58894280   -0.64269218
    8   -7.83513778    4.97180510   -3.81513778    -16.51119899  -38.45397142    6.77135869      1.56114285    0.84291134    3.37740603
    1   -8.43998873    5.34587051   -4.43308252    -16.51113746    8.95796376  -16.42418928      1.01608891   -0.00889254   14.17768031
    1   -7.23077950    5.67222693   -3.78803491     35.09567072   29.94192249    9.59892973    -20.93035721  -40.98703973    9.96004639
    8    6.08254672   -8.79687868   -4.02672561     15.37450634  -33.02532552   20.77897767     -1.56163367    2.28317540   -0.11588308
    1    5.24100898   -8.45815272   -3.78161837    -34.02085144   27.44838167   -7.18138651    -10.20775906   12.94996146    6.22137130
    1    6.03509886   -9.47557262   -3.31845058     19.15988752   -5.06938025  -11.72428535      1.04993053  -18.86580359   -0.48301714
    8    3.47828224   -2.63870545   -8.62242411     15.17790167   -4.22918841   -5.33593795     -2.24227445    2.20041999   -1.75347763
    1    2.68756838   -2.21162678   -8.26655911    -14.09332013    5.19054041    1.10519553    -21.07647241  -15.43978887    7.39690274
    1    4.09637914   -2.34761238   -7.92371652      2.84161022   -4.30525895   -0.19298865    -13.23771425    6.48463454  -22.56877964
    8   10.32822462   -4.09907372    5.82339317     -4.29409445  -18.23544820   18.68276727      4.12982064    1.72331219    0.64759370
    1    9.77903760   -4.77697191    6.35313219     19.24377479   23.07569087  -17.55809994      3.54038717   -6.74254184    1.52379911
    1   -9.59472243   -4.13271938    6.31214365    -15.65716861    2.43451273   -4.61357227     -3.88086389   -0.74111922    2.86786062
    8   -1.13556705   -0.93920462   -3.91144112      4.10309953   -8.21395093  -30.15165199     -1.28767271   -1.73018020   -4.30189391
    1   -1.03770569    0.01419849   -4.13373689     -0.64797431    0.09035985   12.82141429     10.78802639   23.38785880   25.49893682
    1   -1.25393565   -0.98088543   -2.96363112     -5.00158155   13.56098593   24.35278208      0.72895624  -15.15920246   20.95954515
    8   -0.07522709   -6.64882742   -2.06877470    -39.66225440   12.78991420   -0.72405129     -0.61682388   -0.54100434   -6.70091102
    1   -0.58521017   -6.64901403   -2.92543970     10.53000568   -1.85791101   14.41341086      9.91474008  -24.47395018   26.47116505
    1   -0.78517375   -6.22055379   -1.47284846     34.03046119   -8.44512416  -16.67061126     17.94564516    3.05492815    3.08227260
    8    2.88622705    8.07436194    0.03515158     31.68178460   24.74999340  -21.65731415     -3.11037598   -3.57444863    1.51021047
    1    2.17306299    7.80660688    0.53333649    -44.96888736   -7.53120115   31.91005678     -6.33052013    8.24050559   -9.38897657
    1    3.21480883    7.19156959   -0.13454045     15.99133526  -12.77971018  -10.34576607     21.01182681  -20.41731184  -16.70501847
    8    0.63982957    4.74229702   -1.73544256    -13.70898461   -9.76169588   18.26280258      1.48521028   -2.54543638    2.83735112
    1   -0.15208912    5.26607057   -1.59617486    -12.54992410    5.86885740    0.07475767    -14.98149200    4.38898696   -0.12398299
    1    1.09241272    5.31104406   -2.33909884     22.42069419   13.38111293  -17.57353033      5.42391958  -14.16804696    3.34833324
    8   -0.54382284   -8.13638166    5.10731980     48.38863687  -10.90444981   19.06933271     -2.64849406   -0.14175682    0.53542656
    1   -1.08714408   -8.13722997    4.36786667    -28.22414340   -4.14205042  -45.11272471     16.30127696    3.01833310    3.64813016
    1   -1.09715181   -7.69220030    5.72406300    -15.45350373   14.44674795   29.46672706     11.89348261  -14.95467421  -34.11390238
    8    6.22701351   -7.91119179    3.34730987     15.46630998    7.06693325   34.93455407     -2.70431287    0.27422192   -0.86362612
    1    5.55644085   -8.37113631    3.91581826      2.22706723    4.08619527  -10.22511788      7.09392660    5.81127631   -0.51101707
    1    5.87710541   -7.94413867    2.46944738    -11.99337739   -9.74035072  -26.17050000     27.16464739   10.48145002   11.24539927
    8    8.69958192    1.23398548    8.56973285     31.34186074  -75.64795999  -44.84965788     -3.27557024   -1.93387466    2.78303199
    1    8.15021827    1.46247036    9.22829155    -51.69445151   22.05505853   58.72786397     -8.92342324    3.55161396   13.24224847
    1    9.08900706    2.03610007    8.39813062     27.26817330   53.78449434  -14.75211406     17.16771506   20.30438746    4.80654803
    8    3.66755303    3.66633398   -4.25667578    -51.11815356   34.21149863  -15.53195216     -1.24428209   -1.80721881    2.78297721
    1    4.47374996    3.83705578   -4.70894246     31.25687216    1.45568240  -16.38630487     -4.73324710   19.58123808   -0.35495204
    1    3.95392467    3.07392787   -3.60367026     15.58198772  -34.28671400   29.45383571    -12.44935143   22.00472643  -11.61357441
    8    6.45824212   -8.06946595   -8.47110301     -2.88665769   -2.01859641   -4.23513803      2.59761872    3.80172051   -0.80883298
    1    6.52876261   -8.77319551   -7.79162822     12.88705638    5.65124301    4.46408381     22.62534839  -46.37609819    8.97997545
    1    5.54562743   -8.28256177   -8.71472153     -9.67040223    0.73164962   -5.83824252    -11.89455309    8.49014957  -21.97550865
    8   -4.65609260    0.67271956    9.32641715     26.95004025  -29.52766143  -26.95095106      4.46667571   -1.89334409   -3.59089248
    1   -4.29447694   -0.26723870    9.31210423    -14.22471602   22.37133321   10.54925042    -14.89418549   14.32517345    3.59430478
    1   -4.26383445    0.88668929    8.43131186    -11.07307305   11.33364112   14.67065990      2.73853279   -4.10581116   43.13707919
    8    5.03814007   -2.10660696   -6.40109011    -14.91383406   38.99675040   15.15108898      0.50928831   -5.05325982   -1.26234115
    1    4.97227698   -1.85822534   -5.43356737      5.07798296  -14.14222030  -19.66096556      2.00639186  -10.06622281   -6.13095217
    1    5.23117256   -3.03148979   -6.36534985      9.18081340  -29.96020227    6.10807906     -3.18911067    8.06753654  -20.25781458
    8    6.43991559    8.84315167    2.59423610    -18.99568991   -8.06961942   -8.68212426      2.05452134   -3.46291956    5.01112486
    1    5.74909312    8.54219818    3.22920683      1.59965948    3.12839018    0.11111586    -10.88466378   -8.63009797   -5.47757438
    1    7.11521517    9.14951264    3.21982461      6.89722088    6.23294819    6.43292440     29.61770212   -0.28719768    9.87854337
    8    0.37759678   -8.85569063   -6.89195796     11.74037157   19.15298545    0.47790232      1.81004275    1.61749261   -1.27871024
    1    1.35065882   -8.67761897   -6.86855282    -11.77433516   -5.47132491    5.22530020    -11.71137961   -7.63626491  -10.11673055
    1    0.36850095   -9.61534776   -7.49594750      0.41081898  -10.45230099   -1.57818962      2.21360232  -19.61404081   12.17790071
    8   -0.99641720    4.50175176   -4.72103961     17.96906893  -19.16326728   -2.65115639     -0.30326158    4.05494290    0.23161281
    1   -1.03730658    5.42246172   -4.51908986      1.60122088   26.40029452    9.69979507     14.14115435  -14.75291614  -19.20217205
    1   -1.77143284    4.46861144   -5.27356295    -18.31809901   -9.68272210   -9.94867001     36.17341795   11.06645304    7.41552543
    8    4.81034278    2.47342362   -7.96266562     29.99771704   45.41024197   -8.29353086      2.89604863   -1.56523015   -2.06342246
    1    5.40260826    1.74587593   -8.12682986      8.67698665  -20.36143743    0.61231679    -12.31910019   11.21475414    7.13704130
    1    3.99628056    2.05002262   -7.84620277    -40.14620839  -22.63225119    6.24806749    -13.58761643    7.23215127   -1.68952208
    8    2.64204279    6.00530466   -3.19415499      4.28301701  -17.04068485   -8.60848224     -0.38084397    5.20556448    1.42228308
    1    2.92406980    5.13700082   -3.59860817     -3.15853348   16.71959512    4.31857045      5.19256984   -4.42418884    2.41818090
    1    2.74724893    6.62318066   -3.94365233      4.72306212   -0.28383725    2.28365441    -16.60912686    1.64612696   -0.48554424
    8   -3.07248008   -2.98765025   -7.40297767    -14.73473269   29.68710009    7.01603435     -0.71324952    0.38769950   -1.57924314
    1   -4.00452105   -3.28741146   -7.46997653      7.90634347   -5.39051638   -4.92908274      3.42226298   -2.70308305    5.01920484
    1   -3.26190836   -2.01815447   -7.19686475     11.73590582  -21.41550924   -6.86363245    -14.27782154    8.75470082    8.05102314
    8   10.12928908    1.04483435    5.45738845     42.13713667   14.22444045    3.20703119     -2.78576005   -0.35295350   -5.92984873
    1    9.19047519    1.15993739    5.54035200    -27.38647209   -7.92238114   -4.77027577     12.12865580   -1.49334392    9.78598455
    1   10.22924747    0.10237848    5.21807312     -9.69032283   -4.18361039   -0.21984061      1.77024712   14.65886006   23.40656637
    8    7.13196133    9.00325339   -8.52044515     42.24389098  -44.79338850   54.79235547     -1.05513246    1.18022332   -0.63858970
    1    7.14897285    9.66221028   -7.83327004    -17.61769049   39.01713081    0.97106396    -23.17842924    0.59418127    8.46442584
    1    7.75525187    8.46158725   -7.89308632    -20.49256150    8.82407827  -48.27585265     -4.90797762    0.21927112   -8.79452457
    8   -3.03303950   -3.66146478    2.72070430     14.49984039   -7.17989731   -3.80057367     -0.15030073    3.64562787    2.79154091
    1   -3.25931315   -2.91748620    3.30100758      0.22117832    9.71243526    2.44155634      4.02215199    6.17764995    9.83058474
    1   -2.06473898   -3.78743076    2.92314302    -16.64108170    4.07244499    3.18612147     48.85636259   -8.74283544    2.33690757
    8   -7.79071592  -10.10719828   -8.70899422    -57.59187242   -4.60817599    1.13404618     -4.17441917   -1.22594825    1.27099302
    1   -8.49731901   -9.59397442   -9.25241775     33.83507967  -15.92290479   17.22304836     -2.10993106    7.28455698   -7.29170621
    1   -6.95717852   -9.87038129   -9.09733154     22.14254598   17.48642904  -14.05438228     59.23036259   11.72105547  -14.17242756
    8    8.71893540    3.74429453    1.63806436     17.29632541  -33.08931219   40.35056605      0.41832084   -3.54894286   -0.14850457
    1    8.47151156    4.42872610    2.29196023     -1.13116943   -9.58667348   -5.22195678     -0.55423474    2.32872013   13.09764589
    1    9.07259069    2.97980758    2.25836237    -16.29668019   47.00050411  -41.28337781     -3.22343786   14.02297593    3.52136415
    8   -8.25371604   -3.86368568    7.31036620     19.22619622   61.09679442   21.97457328     -4.27852011    4.68282988    1.09848639