 BEGIN_INFO
   #
   # This is a XCRYSDEN-Structure-File
   #
   # aimed for Visualization of geometry
   #
   # Launch as: xcrysden --xsf .HICOLM.XSF
   #
   #
 END_INFO
 # estrutura final
CRYSTAL
PRIMVEC
      20.62660383       0.00000000       0.00000000
       0.00000000      20.62660383       0.00000000
       0.00000000       0.00000000      20.62660383
PRIMCOORD
  927    1
    8    4.82118536    3.55845709    2.39003620    -16.62223518  -38.72147990  -40.54084320      7.78327228    5.55285463    6.63930154
    1    5.33820041    3.36108814    3.16523488     10.86360452   16.91013344   27.09307029     -0.19924383    7.13645827    6.89215808
    1    4.61280497    4.49439499    2.43501987      4.92371521   22.24407733   17.66466597     -3.63186069   -3.81924805   -7.34574351
    8    9.57682987    7.74049403    1.09689248     -0.54449281   22.95958295   -7.06641995      1.93992015    3.74633751    5.35531111
    1    8.81825183    7.32165424    1.51840266     -3.12878546   -9.53691925    2.53916060     23.99824371    7.88430206   14.91585598
    1  -10.29041870    7.46745169    1.63769766      3.12840956  -12.60580368   -0.00683720     16.59661411   17.31313059    0.16953579
    8   10.09378810  -10.20978517    7.27265295    -12.52000617   65.82585863  -12.79176912      8.62341797   -0.29627386    8.66397027
    1   10.26794105   -9.48253419    6.53615158    -17.82571179  -44.74828784   53.87500421      7.02378055   47.00780607  -41.61924660
    1    9.48477048   -9.74427468    7.95335819     26.79154129  -14.99545754  -42.17578723    -31.93773097   37.46526423   24.34639140
    8   -0.84351692    6.98360787   -8.84456154     11.96681719   -4.20894325  -14.71111024      4.36694401    6.23683144    4.65023996
    1   -1.47791883    7.23086999   -8.14785435      7.20359454   -4.29021756   11.45037728     -1.59512818   -2.15185274   16.95469590
    1   -0.05567581    6.61282892   -8.36943642    -17.62758719    6.82014767    5.17100927     36.75604402   -8.90360048   12.09074436
    8   -8.77030754   -8.54018885  -10.06847645     30.28127222  -53.41324935    4.12365338      4.56554859    8.96929477    7.14493456
    1   -8.22089918   -7.93310421   10.07332631      6.07184394   22.68104805  -16.60129039    -21.11436617  -11.22511344   10.84256516
    1   -9.50073341   -8.03377154   -9.77477821    -34.71809401   28.88695514    7.58383317     34.65065714  -32.99201135   -9.19053496
    8    5.19686461   -1.07484588    7.51214645     32.25662711   28.59344310  -14.36089452      2.51155276    2.89640572    8.02734175
    1    5.80070224   -0.23992900    7.56055052    -20.92161880  -52.44584898   -3.42492265     47.29318167   75.54869319   -7.10651832
    1    5.72707191   -1.73392852    6.96855162    -10.54771065   21.38035738   20.59978876     23.96164308  -20.20982781   -0.27173880
    8    3.53633007   10.27765920    7.54681977     20.57301529    8.33318563   22.85411381      3.61678172    5.43443594    3.05027776
    1    2.73450289  -10.03861296    7.11334428    -14.13529303    4.44308449   -8.98868942     32.55438543   -8.95306670   24.11675084
    1    3.60243439   -9.71909202    8.31311324     -6.48327429  -13.45450133  -13.68294736      0.46568693    1.36580202   26.01841030
    8    3.97590262    7.98474732   -5.17267990    -21.93293953  -17.22189521   18.79851411      7.47290659    5.64243409    5.88285989
    1    4.18167560    8.83017220   -4.72490848     10.49672923    4.23674861  -12.97950847     -1.05825101   20.82148121   22.28768961
    1    4.69477217    7.81636456   -5.80189818      8.00047219   13.57552826   -6.06624733      2.93468394   16.18692447   -0.15458205
    8   -2.19815673   -5.85330716    9.74339681     -2.07288779  -11.38569453   -7.69940144      5.35146905    6.27348070    2.24805888
    1   -2.28791934   -5.00143797   10.23537571     18.01008526  -11.82196647    2.44818705     -6.47717068   34.64928809   36.12254787
    1   -1.39517682   -6.31287339   10.12261860    -14.03420109   22.42266154    2.12819697     37.03263114  -30.07764296   17.85051215
    8   -1.85841859    1.97227661   -6.72144437     17.67987518  -16.04420131    0.37331587      6.40471275    6.81845202    4.18658818
    1   -1.94416495    2.66348141   -6.06161532     -8.75170219   15.50376145    7.37240944     -5.78290630   -1.40205823    0.64712156
    1   -2.23214004    2.36875388   -7.52219943     -8.87945231    2.89985070   -4.72859040     -7.88076499   -7.91766375   26.66290645
    8    1.84281336    5.54875636    4.59881264     -4.92221329   -1.61701890   -4.36861648      4.29449960    3.65693470    3.83990152
    1    1.96110304    6.29753567    4.00577467     10.44302617   16.60665718   -4.08578690      8.39876879  -16.74539387   20.84527499
    1    1.32273159    4.99218247    3.99820858     -3.50883889  -14.33521487    7.14514756     29.78290022   42.10925780   18.73308077
    8    7.69990152   -5.72409451   -4.64420058     10.85476523   -5.89794506    5.65027210      4.10754847    4.84165277    6.98125747
    1    8.56217654   -5.80548361   -5.10086238    -10.80211249    4.07775205    0.10957908     12.70812333    3.55763274    4.30959834
    1    7.54099295   -6.63438219   -4.32309216     -2.83991755    2.57226576   -6.19402762     14.07311206    7.00152730   -5.95239153
    8   -8.54900030    9.03303580    3.49027680    -14.16996516  -24.08442563   21.89869080      7.34370531    5.98016017    5.07842539
    1   -8.67986611    8.17694903    3.02462964      6.34636901   13.61974888   -4.22702929     -0.80069143   11.10861189   10.79891482
    1   -8.79059785    8.75547408    4.41564757      4.38708870   11.47781829  -13.08626821    -14.78452329    0.52383212   19.48578220
    8   -1.76466525   -8.10101445    3.40732178    -47.68882178   30.28338118  -27.84807366      6.19335614    5.24644598    5.88659097
    1   -2.46096265   -8.61242723    2.90121165     27.26174468   -0.95328584   16.21936374     10.07211683    4.19415923    5.13430213
    1   -2.14729450   -7.17699845    3.28465376     18.84868661  -26.44403938    8.52563898     -8.53721373   30.11308517  -13.39405159
    8   -1.11181201    4.60309259    6.99674018    -15.34513372   12.23493219   -0.36940690      5.14420784    3.51188539    3.59773041
    1   -0.93249532    5.25069972    7.71844741     12.14365601  -18.36371468   -4.45570058      6.06405171   44.20310544   28.10910715
    1   -0.28457559    4.10123802    6.87998344      5.49327021    4.38007623    7.60262379     14.35755997    9.35981289   -2.22606529
    8    3.11884496    1.43362975    2.03164748     -8.18752615  -10.47767850   35.06368294      5.87866035    6.75219099    2.63280105
    1    3.68338250    2.19618175    2.20340741      9.65124163   12.80551385   -3.47655256     -8.59401842    6.48859503   -0.91946277
    1    3.06034325    1.40650168    1.08341064     -0.20998200   -2.49639014  -28.58781669      5.13424738  -10.13937499   49.55899501
    8    2.48844831    2.26391085   -7.45553066     -4.82149328    4.64410648   16.57910650      7.33755303    5.43729588    5.79827606
    1    1.97113876    1.52514101   -7.05706785      3.55766262   13.17337993   -4.73030216     -3.07712618   14.77564770   11.03651632
    1    2.26617496    3.02621043   -6.86381818     -2.43100329  -16.42076551   -8.22570974     -3.17662377   33.10143702    6.41416108
    8    6.44071949    0.59435779   -7.41437133     26.45407807  -53.04127882   -8.23175026      5.71013690    8.34279052    7.49448835
    1    7.14072194    0.05389685   -7.92887979    -34.96668948   26.60025263   19.07179876     13.44681587  -26.48730785  -22.34028461
    1    5.99514843   -0.14970964   -6.91136387      8.01170151   23.73938691  -11.14758260     -5.80650347  -15.28122185    3.90753716
    8    0.08292895   -6.82127604   -9.76371115     19.79995287  -13.26119191    5.01414409      3.50016815    6.40168792    5.75963770
    1    0.90031629   -6.39118211   -9.38018792    -12.77913929  -20.43183583  -13.53835573     48.66313954   28.82814906    3.82713450
    1    0.35475669   -7.78008649   -9.93617049     -5.84735368   32.51984321    6.18355314     15.83378198  -25.99140903   -2.79267271
    8   -3.57334748    0.05176709   -1.89165488     41.51572901   -9.40162687   10.96205779      2.19059370    5.08957678    3.55228490
    1   -3.47239357   -0.58664819   -2.63791553     -5.93189090    7.57800743   12.87659263     23.55505519    2.70820885    8.98101032
    1   -2.69483069   -0.06104579   -1.39979351    -35.37925128   -0.51633529  -19.26672591     35.60261687   10.69800248   28.42537924
    8    7.59806718   -9.24642390   -6.41491860    -42.97683032  -33.27341710  -40.29154221      5.71222733    6.44765108    7.18339280
    1    7.15264771   -8.99597930   -5.60099664      8.81337559   13.55184781   18.91985758     10.65624491   -4.22472945  -10.71192783
    1    8.48869511   -8.92213854   -6.35570735     29.70323915   22.07336811   21.03671570    -13.88504455  -14.31599991   -5.68655736
    8    1.64323124    4.09279109   -5.50856806     12.46096393   -5.50058063  -18.35048560      4.85668298    5.30007752    5.57861047
    1    0.98826934    4.55812588   -4.95057605      8.26420881   -3.39234945   12.39314335     -3.21465680   14.17991388    1.33118736
    1    2.46922502    4.00424112   -4.97103451    -18.09979317    5.01817316    7.51478168     36.96128211    7.58592554   28.95436640
    8    6.74810577   -0.10396798    3.19269039    -16.09430718   52.84673736 -105.89813541      5.74900130    3.04946204   11.47574318
    1    7.20438978    0.48545972    2.43579168    -28.30179188  -47.74926941   66.45574120     45.60456424   47.64270211  -61.86860248
    1    5.84485124   -0.28905915    2.73778859     47.28171557   -0.00427532   35.84761624    -32.70862269    3.14140532  -23.56981031
    8   -4.82505641    2.64141290    5.74874017    -31.62551810   -4.14846667  -10.35659076      4.95429678    6.76936478    4.69683562
    1   -4.55866689    2.44241523    6.65941494     16.56215981    4.11403298   -0.76710544     -2.66758507    8.08417046   18.39596661
    1   -4.04304712    3.02064613    5.31781756     16.57766050   -0.80705976    9.39893710      8.14705520    5.72830678   -3.14938430
    8    2.77343505   -5.23839342   -2.60672503    -69.56843004    3.90177561  -11.86914636      7.68807029    6.84847786    6.37383233
    1    2.41526173   -4.91388587   -3.48653649     22.68416604   -9.76399977   21.29458710      4.60762063    1.35911158   -9.41826598
    1    1.88815470   -5.49207933   -2.17543329     45.86272134    1.67955872   -8.30138210     -8.86860788   -3.30875502   -6.66930745
    8   -3.40896126    2.74693459   -8.84054389     14.27414769   27.04260910  -32.49056785      5.46835919    4.65131693    4.54382199
    1   -3.67064611    2.07326146   -9.49089083     -5.84080668  -12.35514854   10.09547988      7.34812324   29.22221170   24.33669155
    1   -3.07967609    3.45209405   -9.47078514     -8.09796336  -12.14420168   22.84883896      2.63565458   11.52346626   -7.61576795
    8   -0.78109643    8.09810014    4.09309441    -25.85974352  -14.79514379  -21.59900661      7.39055247    4.26438201    6.90711939
    1   -0.54287180    8.98631417    3.76832734     11.95737511   -2.14074243   14.44891050      3.57273538   21.71748974   -1.22315641
    1   -0.29650791    7.92812164    4.90429337     13.90245662   15.74443464    8.50916824     -1.68464243   -2.95286411   24.72428160
    8   -8.65725122   -5.31696877   -1.71900056     -2.76664040   -5.77683613   -6.86700635      8.75633244    6.65154708    7.36052277
    1   -8.79154514   -4.51897807   -1.16018147     -3.51492363   -6.05833952    7.45161210    -16.40505149   17.60374133   24.38178398
    1   -9.31128918   -5.97599398   -1.34720851     11.46593647   13.69085078   -1.75892833     -6.38019333  -10.99613308   -8.52857917
    8    2.91299369    6.49018313   -9.51260826     41.50473669  -72.60275637   51.79311734      3.96179008   13.02281481    0.29085619
    1    3.83929497    5.95850878   -9.38909081    -90.18320163   51.16682303    2.02710716     88.75891266  -66.05125924   11.20042793
    1    2.30380962    6.18024536   -8.71833290     50.84455556   20.04521285  -52.74033597    -45.64198501  -32.74867821   71.35329605
    8   -1.19498281    9.10528579   10.05581131     16.82595905   -8.45848297    9.82956225      5.68005848    7.50827850    6.86468373
    1   -2.06175023    9.29616344  -10.18075608     -7.38185725   -0.72687487   -0.29644467      8.10270010   -9.75160803   -1.31282020
    1   -0.86601650    8.38237245   -9.98382327     -6.87130636    8.62114343   -8.22633215      9.21783247   -4.68242169   -5.34195531
    8   -3.07719044   -1.80953002   -3.88703836     16.75183985    7.53144527   10.56926608      2.80996857    5.62303747    3.89377698
    1   -2.14985443   -1.78391964   -3.52513871    -15.64892636    5.29822437  -21.84096013     31.07250895   13.13598987   27.25851660
    1   -3.06589909   -1.21406297   -4.67654750      7.70076102  -10.20475593    9.05628708     11.15397988    5.20168753   -3.78730826
    8   -8.20012090    3.23759870   -7.39467907    -47.19522690  -36.37403237  -32.10875025      6.52372655    8.08300377    6.07788011
    1   -7.26198607    3.33087967   -7.45847915     33.53999574   19.58712762   14.51265170     -4.78871605   -0.80407588   -9.64886694
    1   -8.49929239    3.72030669   -6.61817789     14.69115708   17.10958163   16.88513942     -0.36326106   11.90668085    7.60414871
    8   -2.53647331    6.06749729    3.54236460    -31.77716455  -12.69305448   23.35605481      7.47993855    4.56205384    3.45518037
    1   -1.97107334    6.78155594    3.83101738     22.73601628   19.63681658   -3.28630019     -2.28441947    3.47519703    7.14974521
    1   -2.17618214    5.78016086    2.70687349     12.86967721   -1.91817127  -19.85386188    -10.45603995   16.86827948   32.82865961
    8   -4.21693217    5.71714932   -6.02581479      2.67769576  -74.38511980   -4.02456600      5.69240871    9.54668565    6.37472346
    1   -3.51366061    6.25106902   -6.35480541     16.98960988   34.51138392   -9.28621441    -15.73261916  -13.68219282    6.66524321
    1   -4.84268772    6.30642498   -5.65994476    -21.07931207   41.21764269   14.39194815     20.26910189  -21.80131751  -18.49554826
    8   -0.62570100    9.43589525    7.43154344    -12.62628000   41.38051526  -26.53714367      8.94242426    4.25283544    8.03762628
    1   -0.71793689    9.30062570    8.36578949     -5.87845612   -9.09876250   31.73924655      1.92748893   -4.67409489  -24.19696550
    1   -0.13554041    8.68563809    7.13388460     14.67836749  -31.79397997   -6.82602716    -24.21411339   39.12240990    5.30296556
    8   -8.80420367    6.58425671    2.17469787     -9.24661252   17.35735025    4.17126286      6.65885666    4.75976697    6.71472166
    1   -7.91745052    6.73099797    1.79802852      3.57143814   -8.35719786   -1.74802281     -0.28845913   12.33399364   -3.66972986
    1   -8.67663980    5.85163441    2.79642194      7.15088108   -8.40735586   -0.49524794     13.15014237    0.84860962   -0.39315679
    8   -3.68970383    9.23239738   -9.35830717     15.33106008  -23.03050543    2.62121001      6.48888972    6.80198030    5.40099058
    1   -4.09171144   10.06419536   -9.64182141     -6.33897264   11.58178938    8.24431774    -10.10869801    0.04728596    2.86359211
    1   -3.68549052    9.27151642   -8.37935001     -7.58277810   12.99627082   -9.05216659     -3.37392813   -4.56447786   24.78792936
    8   -8.63588316    9.78434381    9.11840182    -30.61714641   19.28175875  -18.88491860      6.65832769    3.03977422    5.45908226
    1   -9.42553696   10.02124972    8.51769049     39.25800962  -14.16684467   25.07785982     -9.38209084   13.28290174  -10.16131343
    1   -8.62648435  -10.09778331    9.76102540     -6.94990500   -3.98718439   -6.00895941      7.55210100   15.85441883   27.95254513
    8    1.15554733   -0.58974767    4.92132831    -16.72724784  -30.05265949  -10.34500274      5.83908182    4.02250192    5.45125092
    1    1.02586856    0.26441051    4.49515625     11.69985290   13.12517764   10.42904852     -2.51661050    4.79482990    2.33163562
    1    1.74237476   -0.44187677    5.68329384      5.56791872   17.20999213   -1.22804584     19.78486640    3.81115238   35.29695260
    8   -4.14394532   -8.89113174    6.76877816      3.17257865  -25.61356674    5.59728387      6.18912204    5.30078302    5.45442110
    1   -4.92299353   -9.35181399    7.14979737     -3.19574496   12.12991205   -4.16963464     16.13680261    1.25604508    0.01588906
    1   -3.58128455   -9.67244321    6.59803909      0.07080356   11.18453333   -3.22722094     -7.24872597   12.10701357   12.42412369
    8    0.85858295   -3.56674476   -8.72990781     -6.60592059    0.80249262   -8.54581821      5.16146395    4.99672555    2.96298205
    1    1.05441954   -2.89805437   -8.02708280      8.72998210  -16.27754581   -1.93088520      2.32689388   38.53959448   26.35121033
    1    1.35910965   -4.38240938   -8.51190803      0.74870104   15.30063320   11.75585705     20.40305534   -2.74972268   11.41219339
    8    2.37956633   -4.42427689    5.98348541      8.69533069   -3.20960926  -12.12005795      7.32734319    8.05067149    5.25526690
    1    2.93995643   -4.46814096    6.78837819    -12.29433086    2.89414782    2.24753065     15.39768938  -14.86445578   19.16735809
    1    1.54625792   -4.01540236    6.27886909      4.51038231   -0.64259139    8.11827615     -7.75878283    3.36451504    6.83884031
    8    5.26993261    2.12730508    9.50414598    -27.46422326   11.90984174    7.18009556      5.55908739    5.20481492    4.03263911
    1    5.75445523    1.58698377    8.87368962     18.03874952   -3.23005012   -2.75969240     12.21301978   11.45811161    9.16421335
    1    5.95013695    2.58381090   10.02931085      8.74087204   -9.45500758   -2.59020718     -5.87863721   25.46084302   25.74886462
    8    9.26778490    1.84997754   -3.77894948    -72.00892813    1.56000393  -37.02362365      6.47227427    7.01876066    6.55417726
    1    8.79912871    2.02587387   -4.67852894     38.99712917   -5.87171303   37.90077284    -11.46894536    5.31709221  -15.29065144
    1    8.46525675    1.50868273   -3.28114820     31.37731748    3.95636636   -3.62006265     -4.24322073    1.97963270    1.72685777
    8   -9.50599202    8.31233565    5.94023615    -18.68296232    9.92166645  -63.12107728      6.59711132    2.08951222    7.30239095
    1   -9.84506243    9.10622508    6.38590809      6.84658133    0.57924208   24.38425005      3.97669589   27.95265612    4.95264505
    1   -9.05991544    7.78531470    6.58426678     12.73257206   -8.15795995   37.61608501     -3.88896403   16.51984416   -7.14576368
    8   -8.12959646   -2.31871715   -8.55160068    -20.70566129  -11.95499938    4.65511900      5.24609916    5.30751836    4.94128020
    1   -7.39110035   -1.96914222   -9.09810997      4.49059370    4.79895877   12.73819170     31.19461916    6.80471812  -18.08253909
    1   -7.98348802   -1.97382322   -7.64366956     16.08736908    6.87742271  -15.65394150     10.08845478    5.82143302   42.30222208
    8   -7.40313791    4.44931130   -3.24113296      2.33820700   17.05128418    2.89407765      2.81653577    3.59226993    4.82718185
    1   -7.95416718    4.63251229   -4.03750011      7.64893432    2.52673645    9.75507765     11.16467973   14.50376506  -15.89667178
    1   -7.03790180    5.34099412   -2.97502865     -9.99251098  -21.71716166  -11.52478046     28.21638502   36.84122412   17.94940524
    8    6.61832878   -8.23325904   -4.04746019      4.39006495   11.94756762   -5.34993463      5.63162448    6.22270588    7.17283569
    1    5.96139352   -7.70330370   -3.55138304     -3.31676040   -6.69599638    0.15003009     -2.04920624    4.25185044    2.93215244
    1    6.64535045   -9.05746619   -3.54717293     -2.42071531   -4.48829441    8.13575340     -2.63402240   11.11331734   -8.84931442
    8    3.98019813   -2.01081128   -8.45217487     10.58864589   -1.67914476   -3.62648971      3.31949754    5.65092685    3.51477203
    1    3.09961502   -1.71516801   -8.14314460      8.99342929    0.45148079    8.98718168      0.30809854    7.87314463   17.32750905
    1    4.58534437   -1.88070567   -7.67820105    -19.87771165    4.11547381   -4.23294655     36.00186909  -10.56087672   23.81190605
    8   -9.92874067   -3.56296085    6.39598451    -12.91343918   16.69432606  -28.70000243      3.27508442    5.51353659    8.00642217
    1   10.19342197   -4.20077477    6.91929112     -4.66655582  -10.89873061    7.91862069     28.44423148   14.79708134  -19.88398062
    1   -9.09273606   -3.49455916    6.85372918     16.01811327   -6.05523082   18.39187883     -0.97291870    1.07882170  -16.30014040
    8   -0.45177152   -1.03967227   -3.21140297      0.75489235   -0.38559295   11.97046246      6.11256489    4.71348980    2.65078934
    1   -0.25338832   -0.08390413   -3.40939238    -10.22761994  -14.34088170   21.53534478     12.39653399   47.50775196   -1.59856693
    1   -0.53195506   -1.11958086   -2.21309741      1.44657871   19.61057282  -28.63976979      0.29060760   -1.49236587   55.13043672
    8    0.49446760   -6.33903954   -1.50588974    -23.64795401   18.85849676    9.58540114      6.66323075    6.32681502    2.69506453
    1   -0.16203886   -6.23858737   -2.23741044     10.86584872   -5.10929511    3.01310065     13.70368856    3.23421839   20.12378251
    1   -0.00103437   -5.90723755   -0.75307848     13.01248296   -9.70397496  -15.74440942    -10.22729686    2.70614531   24.27282273
    8    3.25729173    8.38558593   -0.11279939     23.92606176    1.21957699   -6.03358420      5.25698772    2.75261579    7.86170344
    1    2.39948328    8.15309252    0.21955430    -32.17763590    4.96166711    9.78304385     48.91181895   16.04183517  -22.94917454
    1    3.63307519    7.50656280   -0.20725765     11.40067835   -7.51825012   -2.63122812    -16.46658435   44.10121023   23.35450710
    8    0.94388064    6.19692036   -1.78831195      9.52799788    3.68111214   -1.01525338      3.42743818    5.60023248    3.26429893
    1    0.27957552    5.92287424   -2.41326098    -19.78094284   -8.87824247   -6.15234094     57.78493408    8.29323313   32.83253260
    1    1.70135777    6.31451006   -2.38671564     10.47178680    3.11179571    7.04615980    -13.09991261  -10.08520917   25.10306159
    8   -0.07437494   -7.43557466    5.48811367    -10.17072051   17.22083285    5.29122382      5.18440961    5.59004391    3.31454156
    1   -0.79044295   -7.56877899    4.83935997      4.90266069   -9.01714936   -3.04353519     18.56585013    3.28129979   27.26752692
    1   -0.48469663   -6.77627637    6.09503942      4.55535478   -7.56649089    0.24921683     -3.19657193   17.23371153    8.25798160
    8    7.05041408   -7.59516800    3.29983270    -10.15014749    4.46221255   -4.36418089      3.87095366    6.53193305    3.83444324
    1    6.24740509   -7.44966326    3.82649052     -0.04557767   -2.94133666   16.52065970     20.46325874  -25.77949930   -5.13139973
    1    6.65626816   -7.57990557    2.41232205     11.28345071   -3.00017295  -10.63401182     13.69834311    6.76908905   52.71622825
    8    9.22687117    1.90984848    8.93208586     11.93395489 -112.86083138  -40.02125980      5.06730457   12.02260410    9.51906870
    1    8.66054560    2.19001594    9.58439997    -39.58239872   42.47455069   51.51276958     53.89914973  -14.69565038  -49.85973116
    1    9.65563603    2.64589968    8.61531907     23.71657572   72.79003901  -13.01177534    -29.98171000  -60.38263665   19.34121600
    8    3.93891627    3.78879129   -4.02494444    -15.00959946   17.66347821  -13.77459867      6.80621121    8.45122602    7.75632259
    1    4.77358069    3.96908321   -4.50429043      4.51591319   -8.80250770    3.96845935     18.40542237  -15.61448374   -6.84256884
    1    4.20728175    3.29070841   -3.24116155     12.50866487   -9.82755271    4.15521356     -5.94445938   -5.32038836   -5.32271479
    8    6.95515940   -7.74399225   -8.60204086      4.85121647    1.29465156   12.75757974      2.73071233    4.52159631    6.20739554
    1    7.15668901   -8.21286054   -7.77655766      8.64261238   -1.66403022    4.13065318     -2.26007130   15.62758397  -16.38949243
    1    6.07044641   -8.07699518   -8.76627718    -14.47517614   -1.80836391  -13.32403152     49.61731663   20.21967964   16.33261472
    8   -4.30783291    0.83580067   10.05701700    -14.86933154   14.62730425    6.89313675      8.61314665    6.22168180    6.61687655
    1   -3.78112485    0.03496672   10.08087910     13.11533364  -22.11930651   -1.32044473    -30.79177780   20.07080127   -3.27544688
    1   -3.96620149    1.26446368    9.25752439      3.48105148    6.29683199   -8.99550098     -5.55386133  -15.19580447    6.28952242
    8    5.42888290   -1.66254516   -6.17873180     -3.90027976   -3.50478635   17.31620309      7.75584736    6.73488867    4.67905416
    1    5.41527650   -1.48229251   -5.19678168      4.29000250   -6.34054900  -20.50326816    -18.45194206    3.61151575   37.48244540
    1    5.56363921   -2.63929144   -6.20408476      2.66807226    8.15235336    2.39905247    -18.28374280   -4.01396560    0.06962624
    8    6.10388273    9.33018438    2.67361122      5.93799395   -1.35506188  -54.06853209      4.62317992    5.58768942    9.35157591
    1    5.53071260    9.07389637    3.38467968     -9.69634465   -4.00145686   31.64278953     17.73848687   12.74492147  -15.35896939
    1    6.81749850    9.82838457    3.07808667      6.17090868    7.15998780   24.02242320     -0.44318355   12.03269590  -10.93852734
    8    0.76521157   -8.58540045   -6.37907480    -15.85642880   36.73529669   19.75593435      8.64025131    2.83459125    2.89363022
    1    1.70075113   -8.39697290   -6.28318383     18.34898984   -0.86978460    2.25865451    -19.72812234   -0.17880401    8.74891595
    1    0.77574680   -9.35509237   -6.91496146     -1.24278025  -34.26677096  -22.46844492      8.94620432   56.21292666   35.13327215
    8   -0.40962686    5.24513143   -4.07532652      3.67451006   -6.63794409   -1.86445562      1.47306461    6.11668494    3.61591828
    1   -0.72626852    6.14249929   -4.15502407     -1.04018663   22.81273860    2.55240409     13.81710659  -34.37120941    4.68616400
    1   -1.21984131    4.77047195   -4.30857989     -2.34888354  -15.37075035   -0.93873838     52.07300523   31.23816704   19.14776084
    8    5.08965202    2.96126636   -7.84987551    -16.82983241  -56.63740340   22.81884409      6.44061606    9.97797803    6.66002729
    1    5.57565404    2.07491536   -7.72412897    -12.72781972   39.51323755  -10.69207310      7.81630341  -32.67743751    4.56381715
    1    4.14459321    2.67431011   -7.62858126     31.79445067   16.95141386  -14.25383982    -11.59412116   -8.99731176   -1.35567888
    8    3.30724924    6.25958823   -3.13879783     -5.70912935   10.20291555   16.75129337      8.44170217    4.09703128    4.03259720
    1    3.55459762    5.44208280   -3.56420952      1.72722484  -24.84588860   -5.46780631    -18.13375962   44.79833007   17.42890333
    1    3.67108145    6.90315491   -3.74803378      2.00277359   16.89727618  -12.45910640    -17.03477865  -15.29629723   14.60224656
    8   -2.63371087   -2.84073890   -7.10072295     -2.69991740    5.15232060    3.65566821      4.59789242    4.89955398    6.29028466
    1   -3.58907544   -3.02194978   -7.24628946      9.36511748   -0.13974640   -1.03713688     24.19691981   13.43497290    4.33364245
    1   -2.64628838   -1.92088601   -6.75321253     -2.82689109   -5.51294433   -3.65733140      9.64590339   13.37926626   19.16029518
    8   10.18977123    1.56254155    5.08198898    -62.05182119  -49.73034641   39.98351589      8.83215013    8.10928581    4.32508461
    1    9.18123802    1.46841831    5.34319972     64.36812985   19.78074920  -27.96154558    -53.25547252  -11.58485327   12.50807683
    1  -10.12908770    0.64149106    5.33174880     -1.44693497   28.49529062  -17.37108600      2.63356428  -23.50612339   -3.92983109
    8    7.72606798    9.27667794   -8.13699655    -48.62337263  -10.42492190  -75.33292137      6.98400349    6.48329732    8.68532913
    1    7.62586876   10.08706014   -7.66537792     11.20219973   23.96711150   35.42728012      1.25081894  -15.48201232  -20.89082154
    1    8.35843357    8.75574133   -7.69711357     34.51105771  -12.97255406   41.23656362    -29.52399310   24.11685964  -11.00779903
    8   -2.55764270   -3.14431982    3.44151570      5.73766256   -7.85393850    0.12775987      2.65019298    4.52654462    3.10131182
    1   -2.92609355   -2.34683578    3.90650084     22.02401640  -11.76828165   -2.45237425    -20.51378325   44.73472867   28.26652645
    1   -1.63007701   -3.27075707    3.78795843    -22.61277058   22.01054148    2.07550904     63.55843815  -10.83348573   32.63520984
    8   -7.03388567   -9.97577319   -8.59414074      2.90944001  -58.78000523   44.87226871      3.10042573   11.28673053    3.26240294
    1   -7.56792581   -9.41314592   -9.09881012    -28.51641153   36.38627126  -33.21493002     49.49946378  -44.31784899   35.65555551
    1   -6.15935051   -9.63393768   -8.69537944     27.73960434   17.86427114  -13.79867882    -21.54913586  -18.20585423    4.61298741
    8    8.95689708    4.53738716    1.82911229     26.89306868  -19.79561408   18.53333730      3.72598188    4.25676112    4.02389768
    1    8.68253124    5.04595934    2.63691432      9.69780471  -20.27186121  -10.87145090      1.76553920   33.32298635   38.86879289
    1    9.65066379    3.86033027    2.15363301    -39.46023187   34.74723855   -9.25436080     52.22532616  -17.69529554    9.42215156
    8   -7.61802817   -3.58142378    7.79991892    -65.73052305  -24.50305452   26.00130713      9.68363301    5.13554662    4.66177673