 BEGIN_INFO
   #
   # This is a XCRYSDEN-Structure-File
   #
   # aimed for Visualization of geometry
   #
   # Launch as: xcrysden --xsf .HICOLM.XSF
   #
   #
 END_INFO
 # estrutura final
CRYSTAL
PRIMVEC
      20.97410550       0.00000000       0.00000000
       0.00000000      20.97410550       0.00000000
       0.00000000       0.00000000      20.97410550
PRIMCOORD
  927    1
    8    6.15198646    4.78868092    3.43720614     -3.82639685    4.25007189   -7.86900456      4.33010724    4.33031807    4.33000088
    1    6.69270447    4.86785286    4.23647827     11.71237216   -3.78176107    8.46634407     17.25736195   17.25092288   17.25601722
    1    5.65371710    5.63517875    3.52914477     -4.41716585   -2.05605876   -4.22147438     17.25065333   17.25164588   17.25074022
    8   -9.42521285    8.04177212    2.10631665     15.86859060  -13.45506850   12.38291472      4.33062224    4.32985598    4.33053127
    1   -8.81666296    7.55008917    2.71268108     -6.50255278    9.78965874    3.12133924     17.24979746   17.25655283   17.25379424
    1   -9.23687217    7.47642460    1.33786351     -5.51347561    0.19838894  -13.32332394     17.25020323   17.25257131   17.24695468
    8   -9.45030377   -8.49074314    9.32663406     31.15882216  -18.39659252   -4.78736346      4.33102301    4.32972576    4.33008249
    1   -9.32682182   -7.85482957    8.59372925     -1.89337851    8.68172451    2.74634843     17.25170662   17.25610274   17.25362657
    1  -10.29795889   -8.24384842    9.68697078    -22.49118537   11.67198202    1.90035786     17.24314496   17.25734110   17.25328369
    8    0.68582355    9.34697929   -7.77832109     -4.39579562    0.95116810    4.84787518      4.33009259    4.33023269    4.33033369
    1    0.15110563    9.29666032   -6.94735087     -7.34717140    7.29067439   -3.32265728     17.24943603   17.25551931   17.25111935
    1    1.14746146    8.52495456   -7.64240226     11.89329135  -10.87163920   -5.72501897     17.25743450   17.24797094   17.25011529
    8   -8.06323498   -6.74891884   -8.67973772     -7.69584495   -0.70259350   -4.71015058      4.33000634    4.33018844    4.33008446
    1   -7.76025479   -5.92217521   -9.10259862      7.29214826    3.06833111    2.44445943     17.25552320   17.25377424   17.25350306
    1   -9.02089775   -6.51815499   -8.60685762      2.34942429   -7.51907352    4.68058152     17.25346130   17.24937092   17.25443628
    8    6.26841786    0.61707899    8.15896078      6.13300072    7.56138637   -1.92487053      4.33036723    4.33040507    4.33015715
    1    6.92167920    1.34590442    8.21728686      0.59670149   -3.43349622    1.75810048     17.25274748   17.25107403   17.25322265
    1    6.84838109   -0.10568105    7.85238044      0.63651850   -4.10700751   -1.12017585     17.25276064   17.25078149   17.25202464
    8    5.05495887   -9.05510361    8.67815742    -17.53162195    3.67472917   11.29482097      4.32974927    4.33030333    4.33050262
    1    4.20464390   -8.89538964    8.17692104     11.10635094   -2.08751345    5.51553958     17.25709962   17.25162595   17.25477971
    1    4.79826623   -8.67986676    9.55911281      4.86266477   -1.52783485  -16.55403858     17.25450876   17.25186139   17.24562617
    8    5.99300650    9.78029645   -4.35730838      3.53942590    7.03462845   -2.61682167      4.33029972    4.33039087    4.33013925
    1    6.04611828  -10.23813290   -4.14459333      2.98068969   -0.92308809   -2.26819469     17.25373076   17.25211901   17.25155192
    1    6.64683992    9.67127535   -5.09863040     -5.16313178    0.95352570    8.53928863     17.25035284   17.25288756   17.25603261
    8   -1.41768742   -4.57396878   -9.52099419      1.19610997  -27.82830525  -13.80239199      4.33023823    4.32947905    4.32984581
    1   -1.54338737   -3.68915756   -9.24050679     -3.24623002   34.67655919   11.22391458     17.25114299   17.26690222   17.25715650
    1   -0.61953157   -4.80591488   -9.00873669      7.56223084   -3.37216026    1.76322751     17.25564104   17.25108984   17.25322998
    8   -0.65754204    3.04667745   -5.44266362     -0.05085680  -14.51295615  -14.40282929      4.33020634    4.32982710    4.32983037
    1   -0.86037043    3.56465255   -4.66271804     -3.10265002   17.23453293   13.67026458     17.25120111   17.25965522   17.25817720
    1   -0.87769145    3.67792222   -6.14968088     -2.73248525   -2.88314487    1.47035863     17.25135531   17.25129934   17.25309762
    8    4.20641523    6.19222569    6.46526986    -24.71903183   -7.56466092   27.14220503      4.32956008    4.33000916    4.33091773
    1    5.01053724    6.64453801    6.75281142     11.90362987   -2.13825097   -0.91227038     17.25744516   17.25160935   17.25211606
    1    4.26594937    6.23290266    5.51108890      7.35192692    4.21012458  -18.59605317     17.25554582   17.25424073   17.24476355
    8    8.14607281   -4.49152265   -3.42277229     16.00606826  -25.87111834   -4.93113036      4.33062576    4.32953109    4.33007853
    1    9.04643987   -4.75526315   -3.75650385     -6.92859607   13.59952804    0.37356860     17.24962266   17.25813756   17.25264420
    1    7.92978239   -5.39909094   -3.10325080     -8.75006516   12.79438039    3.47479532     17.24885666   17.25779994   17.25393716
    8   -7.83051270   10.40015963    5.79625545     -0.12145903    6.12955462   -0.57809522      4.33020446    4.33036821    4.33019187
    1   -7.57494595    9.47023504    5.62735040     -1.55430745   -3.77457934    2.57038469     17.25184803   17.25091869   17.25355844
    1   -8.27940910   10.31225113    6.67106428      3.29517211   -2.09048765   -2.74831272     17.25385645   17.25162302   17.25135836
    8   -0.43704619   -6.78348306    5.31529234     26.27874196  -36.32777593    0.46082456      4.33089532    4.32925680    4.33021957
    1   -1.02259771   -7.47327817    4.93167570     -4.84819640    8.88310042   -2.26537963     17.25047627   17.25617788   17.25154939
    1   -0.99150955   -6.02711326    5.36914574    -27.65946764   26.62683505   -4.24109309     17.24100043   17.26355675   17.25073106
    8   -0.41236648    6.75803604    8.37505368    -13.83419335   -3.98310175    4.27155157      4.32984476    4.33010313    4.33031883
    1   -0.03117902    6.77757712    9.28445266      4.08087801    2.03784202   -8.94573208     17.25419162   17.25333864   17.24878658
    1    0.35673577    6.94046887    7.81697049      9.55992527    4.92518558    2.93802044     17.25646933   17.25453902   17.25370772
    8    5.21289144    2.29259044    2.98165339      3.69641404    7.64540369  -10.38838032      4.33030391    4.33040680    4.32993583
    1    5.54843005    3.19405596    3.18290261      0.11227761    3.31196844    6.65864042     17.25254244   17.25387773   17.25525949
    1    5.27177226    2.34527334    2.01091853     -3.22813103   -7.70526896   -0.12497319     17.25115172   17.24929242   17.25243434
    8    3.89602189    4.27331522   -6.11425540      4.66432079  -12.54863109  -15.64479166      4.33032979    4.32987888    4.32979751
    1    3.19593920    3.63977041   -5.83005026      2.38753629    5.08953568    4.40853906     17.25347953   17.25460203   17.25432465
    1    3.85169646    4.95798397   -5.42827151     -6.96645189    4.65737931   10.22588907     17.24959813   17.25443370   17.25674652
    8    7.94409642    1.98371808   -6.56933011     -9.33648124   -2.28756507  -10.37081148      4.32996324    4.33014799    4.32993631
    1    8.02527045    1.82002192   -7.54131207     -1.55558184   -5.31011539   10.67778658     17.25184663   17.25028618   17.25692073
    1    7.54110421    1.13032658   -6.25314846      9.54637172    9.31366260   -3.46446129     17.25645426   17.25635492   17.25105567
    8    0.94306391   -5.45674635   -8.49818364    -17.64681478  -17.61282049  -12.44674099      4.32974502    4.32974659    4.32988177
    1    1.78338046   -4.99236673   -8.31564695     11.12031375   -0.02753509    2.23091408     17.25712006   17.25248557   17.25342047
    1    1.23100756   -6.32173305   -8.88511111      1.69886740   10.50576981    6.59874628     17.25319941   17.25684990   17.25523010
    8   -2.52973550    1.47692782   -0.66436362     -5.84764371    4.92984917   -1.12425000      4.33005383    4.33033678    4.33017793
    1   -2.48115436    0.83582709   -1.39192984      1.55719506   -4.37656415   -3.76294120     17.25313899   17.25067126   17.25092574
    1   -1.69224432    1.24404663   -0.21229319      4.01495226   -4.44687845    3.51642936     17.25416833   17.25064269   17.25395715
    8    9.49535606   -7.85536851   -4.19426631      2.50144245   12.45220848    4.58860213      4.33027284    4.33053249    4.33032711
    1    8.91261470   -7.62943480   -3.42992402      4.97532561   -0.18789435   -7.59229827     17.25455326   17.25241651   17.24934584
    1   10.03420822   -7.01876569   -4.26000939     -8.74488472   -8.82572599   -0.33167408     17.24886596   17.24883610   17.25235406
    8    3.65314062    6.04235749   -4.07437322     -2.56671077    0.72701489    0.35586997      4.33014011    4.33022652    4.33021606
    1    2.93323239    6.13550270   -3.43465556     -2.11014947   -0.03222426    2.79503938     17.25161018   17.25247918   17.25365818
    1    4.42693752    5.98238113   -3.48152527      4.11872022    0.09526717    0.44139870     17.25421067   17.25253089   17.25268228
    8    9.26403108    0.62371337    4.09409172      0.08146473  -13.24503310   24.92469330      4.33020972    4.32986081    4.33085994
    1    9.53361156    1.07072870    3.31291752      9.32118795   20.66528595  -23.49448608     17.25636544   17.26107761   17.24272885
    1    8.33996937    0.41355515    3.88400901     -9.31233665   -1.78926429    3.23364390     17.24861997   17.25174762   17.25383432
    8   -4.14811503    4.38755263    5.85649783     20.49048086  -11.75679699  -24.71727976      4.33074286    4.32990004    4.32956086
    1   -3.90798144    4.15291780    4.91261227     -8.36137707    6.60032044   22.16977792     17.24902105   17.25523162   17.26169335
    1   -3.26153752    4.25192940    6.27682576    -14.05840741    3.91890468    2.74181018     17.24666309   17.25411795   17.25363507
    8    3.94954221   -3.91039409   -1.40745590     10.64508224  -10.48427986   19.23814567      4.33048642    4.32993328    4.33071085
    1    3.54519710   -3.64842125   -2.22386391     -6.60906727   12.48952217  -26.28754232     17.24974542   17.25768042   17.24156999
    1    3.15569487   -4.32397867   -0.99968088     -0.10381798   -0.72055425    5.77106391     17.25244396   17.25218997   17.25489172
    8   -2.52385556    4.41338016   -7.40412946      5.84599607   19.94120488    4.83137898      4.33036028    4.33072888    4.33033436
    1   -2.62052340    3.75895905   -8.10441215     -0.34580891  -13.11447163  -15.20907351     17.25234779   17.24704241   17.24617245
    1   -2.12496987    5.15889948   -7.92623570      1.70585544   -9.16006030    3.79945946     17.25320444   17.24869514   17.25406505
    8    1.09471157    7.11532739    4.90984823     10.14540918   -0.07506518   27.67269895      4.33047222    4.33020493    4.33093120
    1    1.64322197    7.65776143    4.28618687     -2.25796865    1.86099360    9.15280464     17.25155962   17.25327005   17.25628803
    1    1.46888900    7.33473867    5.81911529     -8.15575332   -0.57135622  -30.84463141     17.24910973   17.25225778   17.23969219
    8   -7.35691998   -4.31145162   -0.26923920     -0.12492760    6.61446065    5.17350044      4.33020444    4.33038013    4.33034213
    1   -7.28689725   -3.47484119    0.27374112      1.53800248  -11.47999515   -9.99788771     17.25313133   17.24773367   17.24834634
    1   -7.93285266   -4.86335908    0.30553865     -1.64250723    3.27185032   -0.30197377     17.25180579   17.25384734   17.25237071
    8    4.45868001    8.11243741   -8.60674746      5.45177571   10.76633580  -16.21855872      4.33034987    4.33048954    4.32978260
    1    5.28922413    7.66835220   -8.35356341      4.39307766   -3.46631273    4.57797880     17.25432414   17.25104805   17.25439586
    1    3.90563538    7.93726019   -7.83747415     -8.70744379   -6.10053564   13.43903925     17.24887144   17.24995677   17.25807945
    8    0.04641952  -10.18309763  -10.15551227     -5.74758652   12.34812797  -13.03630758      4.33005738    4.33053081    4.32986612
    1   -0.92703041  -10.13763372  -10.25231172     -2.98611134    1.54648408   -2.35405454     17.25124617   17.25313457   17.25151356
    1    0.10335778   10.20106761   -9.41238585      6.46345113  -15.72890992   20.83213827     17.25517685   17.24595468   17.26114973
    8   -1.55182386   -0.33538663   -2.54514525    -46.63768306   -2.76152539  -18.47170034      4.32898677    4.33013493    4.32972457
    1   -0.63542463   -0.13724501   -2.57384581     35.16893393    6.49083544    3.25866520     17.26710726   17.25518962   17.25384467
    1   -1.82749818   -0.06283738   -3.46299467      2.62146448   -4.19015217   14.80579145     17.25357920   17.25075350   17.25863515
    8   -7.15758906    4.20662911   -5.79309250    -13.40705176    5.70242150    8.02012509      4.32985643    4.33035592    4.33041704
    1   -6.26346008    4.46426951   -5.98301238     14.37580608    6.32520354   -1.68026735     17.25847118   17.25512205   17.25179246
    1   -7.48424917    4.99945599   -5.28207474      2.14858745   -6.06834214   -4.18141119     17.25338156   17.24998036   17.25076072
    8   -1.66074614    6.92333183    4.40405047     18.20200585    0.94870930    7.39722563      4.33068284    4.33023233    4.33040109
    1   -0.74757181    7.14196317    4.74326896    -17.23030155   -4.52151049   -6.63507340     17.24534675   17.25061661   17.24974018
    1   -1.38370973    6.38656762    3.62666006     -2.06512111    8.64012944    2.16457649     17.25163616   17.25607726   17.25338651
    8   -2.29960983    7.01527109   -4.48219777      6.90541877    4.54766350  -18.16742571      4.33038815    4.33032570    4.32973196
    1   -1.87791193    7.74635944   -5.00509315     -5.30924029   -8.34411574    9.61705994     17.25029078   17.24903387   17.25648132
    1   -2.73024903    7.49276415   -3.75214497     -0.37614621   11.98877960    6.49260431     17.25233166   17.25747616   17.25519532
    8    0.78684294  -10.46240817    8.26205119    -22.29607898   41.07536041  -42.73462420      4.32962414    4.33128232    4.32908881
    1    0.49631576  -10.32751745    9.16135578     -1.11395458   -4.97151747   29.16641179     17.25202647   17.25042828   17.26461368
    1    1.31609664    9.76306615    8.26359635     22.98905355  -38.86602663    9.60087133     17.26204269   17.23634535   17.25647929
    8   -7.70586247    6.42299411    3.56172712      8.65211289   -2.95448019  -12.86812940      4.33043307    4.33012970    4.32987039
    1   -6.85908667    6.76659695    3.15053002    -12.53761747   -1.91381856    9.26715117     17.24729370   17.25170079   17.25633733
    1   -7.53891141    6.64185607    4.50130821     -1.50576619    7.56646183   -0.56533313     17.25186908   17.25563702   17.25226735
    8   -3.69289698   10.19803681   -7.22294652     -0.26114217    5.11907607    4.09700897      4.33020041    4.33034069    4.33031419
    1   -3.96763858   -9.88238718   -7.47163719     -3.64684996    2.69818965   -6.38730016     17.25097518   17.25362051   17.24983762
    1   -3.25889548   10.42778228   -6.38436718      2.13173051   -3.53087593    3.60023226     17.25338213   17.25102882   17.25399666
    8   -7.05779841   -8.92503828  -10.17566305    -13.98515507    9.10351796    6.08938404      4.32984196    4.33044509    4.33036658
    1   -7.84658699   -8.92529290   10.20278676      7.30506555    2.89641562    6.74538035     17.25552186   17.25369491   17.25529038
    1   -7.28509171   -8.14312344   -9.60456583      2.84982839   -9.40185458   -9.54413918     17.25367319   17.24859575   17.24853445
    8    2.71695371    0.05380008    5.98876091     -0.44781976    0.36416235  -20.34957596      4.33019546    4.33021623    4.32967488
    1    2.78166546    0.69768122    5.22044220     -2.54550851   -7.03965464   19.56066353     17.25143559   17.24957412   17.26060976
    1    3.08279071    0.55219431    6.74537890     -0.83629683    5.01558910   -0.57344145     17.25214899   17.25458134   17.25226224
    8   -2.57208831   -7.77775007    8.34337333      9.03529305   14.79291452   -4.17409743      4.33044407    4.33059490    4.33009827
    1   -3.38922987   -8.16994125    8.69895914     -6.31581210   -9.65841350    1.51286027     17.24986381   17.24847881   17.25312259
    1   -2.17830116   -8.53261629    7.85923221     -2.85421882   -2.93349863    2.29237709     17.25130939   17.25126931   17.25344085
    8    1.68004163   -1.75908511   -7.88703645     13.02379453  -10.35693664   17.49575051      4.33054763    4.32993645    4.33066466
    1    2.10351538   -1.15468016   -7.23560860     -5.33130250    4.19982919   -4.07333811     17.25028321   17.25424308   17.25080827
    1    2.15770183   -2.59562373   -7.64887413    -10.03571260    7.48498464   -8.99635732     17.24832819   17.25559419   17.24875797
    8    3.79149665   -2.77364454    7.03210608      4.97433530   -1.79016659   -1.87533245      4.33033774    4.33016019    4.33015777
    1    4.02320496   -2.71939363    7.99034517     -1.14517591   -1.43495601   -2.25566143     17.25201858   17.25189707   17.25156571
    1    3.25162621   -1.97735646    6.91593476     -0.45587993    1.87710365    0.72853323     17.25229820   17.25327812   17.25279401
    8    6.77689899    3.37116543   -9.17843980     14.22114021  -29.45293739    2.54440237      4.33057865    4.32943706    4.33027397
    1    7.07137843    2.39726617   -9.16177490     -9.86984515   27.11102428   -3.96411377     17.24839547   17.26374467   17.25084588
    1    7.66273469    3.77549232   -9.01744405     -2.38681167    1.39936030    3.23418456     17.25151099   17.25307746   17.25383702
    8   -9.70238453    3.38089553   -2.63141237    -18.48921423   -0.05430598  -11.27732500      4.32972419    4.33020624    4.32991244
    1  -10.27273822    3.39918531   -3.42938186     13.51433605    3.50979044   -4.94867271     17.25810193   17.25394979   17.25043247
    1  -10.36491356    2.86535706   -2.13064621      4.74318830   -0.51588365   10.30662642     17.25445758   17.25227427   17.25677594
    8   -9.06221980   10.09137694    8.17781352      2.73409464  -12.09616557  -17.46248231      4.33027884    4.32989070    4.32974989
    1   -9.23458262  -10.04088898    8.62045992     -0.99737477   13.67508532   11.26216015     17.25207619   17.25817993   17.25717449
    1   -8.54439977    9.60019249    8.83922772      3.72187551   -2.53595614    8.12915325     17.25404258   17.25143460   17.25587485
    8   -5.40015835   -1.55923359   -7.76281709      4.02786632    8.54535949    2.97840771      4.33031289    4.33043042    4.33028560
    1   -5.29073443   -1.59113107   -8.72014925      0.99276919   -2.03986162   -4.61109085     17.25290482   17.25164470   17.25057146
    1   -5.44846842   -0.58799338   -7.63958578     -5.84453345   -1.57523703    3.92533929     17.25006423   17.25184798   17.25412334
    8   -5.27272947    6.79336665   -2.89266726      0.40582848   10.16520270   -6.51700348      4.33021775    4.33047270    4.33003707
    1   -5.84858296    7.34025483   -3.46128753     -3.67024503   -1.60529382   -0.95187006     17.25096394   17.25182915   17.25209294
    1   -4.55122815    7.45430387   -2.77006853      1.09322217   -5.78897201    5.02897180     17.25295413   17.25009566   17.25458176
    8    7.73217526   -6.98215101   -2.20803340     18.46563064  -22.00179946   -4.53983007      4.33069084    4.32963188    4.33008791
    1    7.14375862   -6.37529269   -1.70964234     -1.47686790    0.95816355   12.24547136     17.25187318   17.25289531   17.25758254
    1    8.02679687   -7.64226899   -1.50022837    -12.00793822   19.06233139   -5.35170910     17.24750757   17.26040289   17.25027622
    8    5.21757521   -0.47209063   -7.48229408     -9.10898790   -5.19497278  -19.14057097      4.32996912    4.33007131    4.32970593
    1    4.37291656   -0.18474445   -7.09027081     -3.48270113    1.24406000    3.36142301     17.25103940   17.25301094   17.25389140
    1    5.83238906   -0.30484214   -6.77306833     10.66422546    2.75902604   11.64039361     17.25692743   17.25363989   17.25733468
    8   -9.03962894   -3.68712485    8.12338673      1.10620992   -0.77185578  -28.78892619      4.33023618    4.33018708    4.32945345
    1   -9.49377572   -4.05723316    8.89494796    -12.73100359   -7.87763922   10.35868939     17.24720144   17.24921770   17.25680050
    1   -8.40887117   -3.11927988    8.55945293     15.95218778   10.90139537   10.23857923     17.25912415   17.25702595   17.25674980
    8    0.91879946    0.74292225   -2.07043909      2.33974168    4.90939711   -2.08074191      4.33026880    4.33033525    4.33015253
    1    1.14495165    1.69623250   -2.16853096      0.45118890   -5.01786737    4.53120438     17.25268146   17.25041818   17.25437333
    1    0.53177214    0.70078242   -1.16797820      1.49959531   -0.85941984   -1.50487845     17.25311123   17.25213524   17.25187534
    8    1.76718768   -5.05512917   -0.38526878     -7.83053215   -2.98352067   -6.65164488      4.33000311    4.33012911    4.33003330
    1    1.15031753   -5.31383614   -1.12790555      4.58997273    9.00013411   14.93081202     17.25439553   17.25622850   17.25868920
    1    1.16396423   -4.54371901    0.22570534      6.17784542   -6.52963883   -6.61551397     17.25505221   17.24978502   17.24975044
    8    4.24976801   10.36431707    0.70740601     17.10673426  -12.20884216   -1.80550259      4.33065540    4.32988839    4.33016015
    1    3.33136501   10.43907352    1.01151499    -15.10172873    1.84982505    5.34239618     17.24621386   17.25326109   17.25471275
    1    4.33653960    9.36827212    0.67506458      1.80998984   15.76572776    0.47978481     17.25324464   17.25903341   17.25269096
    8    1.08413018    7.06996566    0.05241081     13.54695784  -33.56141286    4.64865382      4.33056213    4.32932916    4.33032945
    1    1.02782562    6.65826969   -0.84116962      3.60609058    0.71262855    0.81198162     17.25398954   17.25278565   17.25282464
    1    0.64134119    7.87763344   -0.12249980    -16.16945941   32.06387447   -2.73357998     17.24577298   17.26581484   17.25135548
    8    1.37871780   -6.29738511    7.16285953     -8.65542049   -4.26363738  -10.63167064      4.32998159    4.33009574    4.32992916
    1    0.65407859   -6.59902017    6.53255385     13.23432696    8.21698966    9.58387646     17.25798494   17.25590314   17.25646897
    1    0.83879168   -5.80872187    7.82296776      1.46511865   -2.21485828    2.03739298     17.25309544   17.25157686   17.25334458
    8    7.91075591   -5.83610907    4.94501824    -15.70291532    5.14821285   -0.74332117      4.32979718    4.33034225    4.33018801
    1    7.13409042   -5.89149286    5.58000323     11.36458811   -3.22396425  -16.12942603     17.25720590   17.25115272   17.24579884
    1    7.46938301   -6.01521708    4.05431389      9.51018002   -3.04462556   20.41563446     17.25643974   17.25122661   17.26096577
    8  -10.48164826    3.28794007   10.06840464     -4.10637252  -13.29169346    2.13251754      4.33010002    4.32985893    4.33026288
    1   10.13265637    3.58650826  -10.03927331     -0.95978236   -0.30816461   -3.14048781     17.25208999   17.25236755   17.25119626
    1  -10.08211278    4.11144986    9.74483838      4.82576076   10.85110869    1.01607807     17.25449996   17.25700695   17.25291117
    8    6.07380888    5.82183997   -2.55675852     -0.68145422  -19.94079812   19.72694007      4.33018901    4.32968622    4.33072342
    1    6.79783724    5.52830906   -3.14989859      2.46197061    4.21528405   -5.17145908     17.25352016   17.25424025   17.25033979
    1    6.34525310    5.24991567   -1.77299132     -8.63972801   13.16553825  -14.05515924     17.24890661   17.25795427   17.24666217
    8    7.75529724   -6.66535756   -7.92134045     12.81550670    5.31645737    1.58348237      4.33054277    4.33034707    4.33024866
    1    8.09338334   -7.46444258   -7.44931176     -4.77529113    1.00873125   -0.47443599     17.25051188   17.25290446   17.25229898
    1    6.84383896   -6.94030774   -8.10179753    -10.80336104   -2.09462405   -0.99352239     17.24800083   17.25162110   17.25207835
    8   -2.70337339    2.79245668   -9.57753603    -11.36583261  -28.26550566    6.56855275      4.32990962    4.32946800    4.33037969
    1   -2.61846776    1.79908255   -9.68526701      2.23989284   24.17237283   -0.87103604     17.25342268   17.26252486   17.25212969
    1   -1.98652562    3.15032990  -10.13687947      7.34773340   -2.52757683   -4.74281154     17.25555008   17.25144557   17.25051718
    8    7.25630235   -0.42199841   -5.52496341      0.74530652   12.97730888    3.85370519      4.33022706    4.33054709    4.33030760
    1    6.88187761   -1.31765152   -5.45403025      0.33218724  -10.22438190    5.86381542     17.25262797   17.24824100   17.25492770
    1    7.30967280   -0.15047472   -4.57125872      0.92049200   -4.56759572   -5.72991773     17.25287473   17.25059793   17.25012288
    8    6.96908177   10.07855922    3.83903971     -3.54941336   -2.67968515    3.02280374      4.33011443    4.33013724    4.33028578
    1    6.26921266    9.70506090    4.43915143     10.23864051    7.19540154   -2.39821502     17.25673930   17.25547777   17.25150070
    1    7.64591767   10.43511468    4.46929801     -8.26967550   -5.87105940   -0.23674678     17.24906530   17.25005774   17.25240145
    8    1.62437689   -7.58405928   -5.41211236     -0.33448981    8.76264585    5.19170194      4.33019792    4.33043677    4.33034346
    1    2.56759223   -7.32574181   -5.33359108      4.22787714    5.15212082    2.90620128     17.25425837   17.25463450   17.25369979
    1    1.78325642   -8.27854194   -6.07579557     -6.67106341   -9.39973386   -6.30125986     17.24972242   17.24858458   17.24987158
    8    1.04657539    6.29069331   -2.51797498     -9.23713208   -3.95528671  -23.24864677      4.32996613    4.33010363    4.32959953
    1    0.90235498    7.17007227   -2.94366843      2.58217508   -2.72639060    8.62914138     17.25356331   17.25136767   17.25607210
    1    0.34654376    5.76830672   -3.01028884      7.02295911    6.81495866   11.76623844     17.25540545   17.25531950   17.25737647
    8    6.62179112    4.71183866   -6.40830485      3.05321747    2.92306999    4.59669938      4.33028760    4.33028419    4.33032777
    1    6.83824840    3.79621186   -6.63714990      2.86440108   -4.44928185   -2.47722267     17.25368327   17.25063913   17.25146168
    1    5.65873531    4.64360524   -6.28541877     -8.13843414   -3.77405115   -0.75212938     17.24910632   17.25092467   17.25218041
    8    5.92409525    8.39763996   -2.03353162     -1.99644204   12.53385433    6.32344859      4.33015516    4.33053548    4.33037334
    1    5.93791639    7.47181375   -2.34226831      1.91034147  -10.01974499   -2.19743788     17.25328540   17.24832562   17.25157822
    1    5.96871480    8.88974678   -2.88181774     -3.30693385   -1.48241251   -4.11696058     17.25111881   17.25188042   17.25077616
    8   -1.59116546   -1.70174695   -5.76764515     20.41574847  -30.90044180  -14.17031072      4.33074203    4.32939847    4.32983642
    1   -2.45907740   -2.03804900   -5.51305033    -16.80718838   -5.96385903    0.81028409     17.24550680   17.25001339   17.25282988
    1   -1.69767363   -0.79778847   -5.48796095     -4.99887667   30.00564088    5.26208859     17.25041456   17.26496288   17.25468022
    8   -8.80556900    3.14265758    6.67182240     15.38911582   -6.33119512    3.55522573      4.33061033    4.33004222    4.33030038
    1   -9.73792414    3.10050514    6.38221713     -7.85427569   -2.76183631    0.57996584     17.24922518   17.25134516   17.25273115
    1   -8.69127861    2.24883683    7.09270416     -1.12010867    9.54186863   -5.57646304     17.25202817   17.25644815   17.25017936
    8    8.54157596   -8.87684360   -6.63782934    -10.11951365  -20.60499012  -17.92766212      4.32994262    4.32966844    4.32973773
    1    8.79536151   -8.52773463   -5.79741107     11.63212717   16.17668111   25.35256553     17.25732558   17.25921389   17.26303067
    1    8.33373181   -9.79447611   -6.36728783     -1.28251640    3.73740040   -7.51080603     17.25195803   17.25403855   17.24937452
    8   -1.50994548   -2.13194315    4.82274543    -17.40830540   10.81374452   -4.95005156      4.32975151    4.33048994    4.33007730
    1   -1.83158168   -1.34664985    5.33617618      6.51451944   -6.70652785   -2.08230335     17.25519482   17.24971481   17.25163280
    1   -0.59882191   -2.20866249    5.15072659     10.85098517    6.26693601    5.95733531     17.25700802   17.25509441   17.25497012
    8   -6.72788768   -8.10366315   -6.74480284     -7.87625227    4.86253110   -9.20272376      4.33000108    4.33033444    4.32996720
    1   -7.22767823   -7.58241307   -7.43254976      2.69635992   -4.28700089    8.99234441     17.25360845   17.25071524   17.25622187
    1   -5.82556714   -8.04061245   -7.12845877      4.33474727   -0.19206232    1.79752927     17.25430076   17.25241277   17.25323485
    8    9.27740513    6.96890254    2.95904427     19.46934644   14.15618097   -8.73145629      4.33071609    4.33057754    4.32997862
    1    9.48757597    6.78134908    3.90268267      4.92507922    3.54908612    0.49142382     17.25454014   17.25396443   17.25270567
    1   10.09650548    7.49859570    2.65856537    -23.25341997  -18.75103118   10.91782113     17.24284369   17.24471027   17.25702381
    8   -6.82229254   -2.57672793    9.41925619      5.54487977    6.48068825    5.89894605      4.33035172    4.33037673    4.33036189