 BEGIN_INFO
   #
   # This is a XCRYSDEN-Structure-File
   #
   # aimed for Visualization of geometry
   #
   # Launch as: xcrysden --xsf .HICOLM.XSF
   #
   #
 END_INFO
 # estrutura final
CRYSTAL
PRIMVEC
      21.03256089       0.00000000       0.00000000
       0.00000000      21.03256089       0.00000000
       0.00000000       0.00000000      21.03256089
PRIMCOORD
  927    1
    8    6.64341057    5.33507253    4.50476350     21.15214195   -2.74129388   19.18288428      4.38472773    4.32194591    4.37822771
    1    7.22288614    5.29707280    5.33450794    -15.72666950    0.91126518  -22.39171377     16.61400537   17.29607144   16.34804734
    1    6.19680919    6.19657037    4.64980646     -4.90094702    0.77996833    4.42739755     17.04761142   17.29745251   17.44427351
    8   -8.87509553    8.63586858    3.17309093      5.02309734  -18.38145680   -8.70080527      4.34291196    4.28142498    4.30507794
    1   -8.24132504    8.13198710    3.73190676     -1.67264799    6.69477895    0.41134787     17.19405501   17.52468280   17.28101183
    1   -8.75501643    8.08247817    2.35541150     -1.73910264   11.61622888    4.85144775     17.17762743   17.75298578   17.47801104
    8   -8.62310246   -7.68559441    9.97446790    -10.79893345  -22.30662607   15.61334353      4.30073592    4.27139249    4.37160655
    1   -8.50213989   -6.89563945    9.44709397      4.36502346   15.94180866  -13.02968893     17.43641917   17.92354317   16.70605799
    1   -9.59265239   -7.61719571   10.17829213      9.83463034    4.13238675   -3.45462181     17.67774894   17.42370643   17.10767264
    8    1.29368686    9.67018851   -7.07415958    -16.88686489    6.46156826   -2.59101596      4.28624363    4.34688601    4.32340617
    1    0.62640800    9.72151553   -6.34571129      0.97198289    0.57506335   -2.34967732     17.29232720   17.27800608   17.15733753
    1    1.72105110    8.83770817   -6.84126521     11.16973260   -3.44489400    2.02690513     17.71426808   17.11338196   17.33517327
    8   -7.45715724   -6.21405201   -7.65596875     13.83982035   -9.02726326    6.50452504      4.36517324    4.30611883    4.34774292
    1   -7.11709867   -5.47019601   -8.17390417     13.01143083    9.06416911   -7.76586019     17.79929301   17.64053585   16.92355434
    1   -8.35329714   -5.89911689   -7.65803567    -29.66999601   -1.43666722    4.96334242     16.03283586   17.18899151   17.45925422
    8    7.30238093    1.39839928    8.93311833      9.67163555   -8.75290250   -8.95139191      4.35408943    4.30492298    4.30593271
    1    8.13842913    1.95458269    8.95840898     -9.74389042   -1.95418691    4.85936903     16.87438734   17.18802983   17.45586804
    1    7.66706990    0.62316540    8.43550123     -4.65194716    8.08238353    4.59817490     17.05421182   17.60672667   17.45540850
    8    5.95559262   -8.52528153    9.19810470    -17.77847151   11.13780349   -7.13255640      4.28257221    4.35873939    4.30902529
    1    5.14816673   -8.23866404    8.66892611     14.63882080   -8.81788289   16.22839832     17.88058489   16.88083952   17.94104597
    1    5.81466504   -7.98508740   10.01269573     -3.11568528   -2.99465202   -7.07722233     17.12001731   17.14421256   16.98220705
    8    6.55609313   10.49828374   -3.57722484      5.46518635   23.06390135    7.14850951      4.34354040    4.38854211    4.34891354
    1    6.60900269   -9.55368994   -3.44120600    -10.79688823   -8.98820381    4.21577629     16.81107229   16.90509235   17.43022382
    1    7.44154756   10.40692925   -3.96224633     -0.59599373  -11.50502508   -9.17051055     17.23820578   16.77908568   16.86863550
    8   -0.57987124   -4.06821431   -9.14158295      5.72542773   18.40020334   13.65486086      4.34364278    4.37687320    4.36421771
    1   -0.70955915   -3.19365779   -8.66849707      5.15518873  -19.38844266  -10.62448294     17.47069023   16.46924423   16.82717881
    1    0.32453396   -4.32895190   -8.81678846    -10.84900047    0.33702575    3.66037119     16.82211530   17.26873842   17.41586416
    8    0.11204204    3.84554872   -4.72796910     -4.48800915   13.27524320    7.86040797      4.31807320    4.36378001    4.34842082
    1    0.06211147    4.58833434   -4.06379033      2.59320086  -12.98133840   -8.70717023     17.35907291   16.73722576   16.90965099
    1   -0.34673013    4.25155728   -5.48743246     -3.25618385   -0.17388145   -1.24273524     17.12585778   17.23994736   17.21690980
    8    3.55753399    6.35176941    7.14499697     -0.26372641    1.26008348    0.08918505      4.32744546    4.33228391    4.32865824
    1    4.35589049    6.55606382    6.61565655      0.51012098    2.03713233    2.20142801     17.28576324   17.34168436   17.34165774
    1    3.01949366    5.97398861    6.42188021     -2.12452301   -2.55836793    0.75968562     17.18360578   17.16092282   17.31455365
    8    8.74912745   -3.76906182   -2.86650111      2.64843220   22.72120718   -8.61087788      4.33662804    4.38919788    4.30819766
    1    9.61751981   -4.05973005   -3.20113323      4.44260066   -1.93743747   -2.10316759     17.44309830   17.17168055   17.16385225
    1    8.51902660   -4.52122472   -2.32666728     -6.99740940  -15.83058522    7.48782026     16.96417462   16.60300877   17.55855433
    8   -6.89941065   -9.99650717    6.41857323     -3.92423416    9.39657644    6.52150896      4.32015531    4.35288908    4.34607031
    1   -6.91777041   10.07664680    6.27411291     -1.07211227   -3.74853254    2.72100995     17.20961357   17.12360187   17.36880321
    1   -7.21739099   -9.94037998    7.35744672      3.04469640   -6.25198951   -9.91357551     17.37544362   16.99609037   16.85616352
    8    0.29610124   -6.01998741    5.59845461     17.45307568   -3.26660763    5.18083371      4.37414642    4.31978387    4.34241599
    1   -0.22360094   -6.70375856    5.16078134     -8.00103135   -8.17392283   -4.45841399     16.94460072   16.93658377   17.08626905
    1   -0.25019612   -5.24086818    5.39477091     -5.61015877   10.07079085    2.61371577     17.02313654   17.67601238   17.36410847
    8    0.23059318    7.30021404    8.80278391     12.69853109   -0.15247889    7.09192351      4.36135914    4.32935992    4.34728996
    1    0.74123730    7.26749624    9.65096888     -8.20875546    0.31840864   -4.58028968     16.93180502   17.26835898   17.08545533
    1    0.91501221    7.70390960    8.23380943     -7.08059689   -2.17851843    1.36739096     16.97013536   17.16756402   17.30789152
    8    5.44742977    3.02431447    3.55608885      4.04315541   15.27575681   -8.61920123      4.33988111    4.36806599    4.30562498
    1    5.75101425    3.94465319    3.75909882      0.66501149   -8.51242562    6.97894917     17.29021054   16.92942673   17.54819202
    1    5.36979518    3.10468977    2.57181342     -5.18090670   -7.58243367    5.97189476     17.04056167   16.93849580   17.52361301
    8    4.78508753    4.52365992   -5.37400991      6.58091413   15.09386387   -1.20833224      4.34658286    4.36741020    4.32642879
    1    4.01193120    4.02505695   -5.08442495    -10.24540819  -15.65075063    3.60442436     16.84558899   16.61486370   17.39680274
    1    4.63137439    5.31955887   -4.83039479      0.00839183    3.56689422    0.03473538     17.24894527   17.42351266   17.27039285
    8    8.67858206    2.62253714   -6.00566197     -0.86005828   18.61203238   13.95799175      4.32765234    4.37691232    4.36556635
    1    8.86620987    2.34903788   -6.89574386      7.21261179   -2.92160805  -26.09481147     17.55051724   17.14334260   16.18790251
    1    8.29258046    1.79867770   -5.68093430     -5.09068394  -12.26121559    9.43761964     17.04877116   16.76286980   17.64457675
    8    1.71822728   -4.99611382   -8.03362409     18.41805383    1.59917786    5.28886519      4.37661780    4.33212274    4.34277806
    1    2.51971831   -4.50256361   -7.66677763    -15.33387451  -11.20752992   -9.35191084     16.64585542   16.80221138   16.87715704
    1    2.10122491   -5.87194477   -8.30713436     -5.77822135   10.85505705    3.97381533     17.00959493   17.72064182   17.42433988
    8   -1.90621064    2.27492197    0.08878114     12.92884315    4.33849055    7.18934199      4.36231264    4.33997179    4.34689482
    1   -1.97281873    1.54563549   -0.55293153      0.54634996   -5.06963276   -4.54782546     17.27758734   17.06796580   17.08596968
    1   -0.97479830    2.13546357    0.40602053    -15.17877811   -3.05683530   -3.30137345     16.64647300   17.12434585   17.12504827
    8   10.07727114   -7.05860788   -3.54950101     29.54536885   25.81770950  -16.87764732      4.40676261    4.39564838    4.28547382
    1    9.46217098   -6.78041927   -2.86012483     -6.83133216    3.92225627    7.52688148     16.96671669   17.42328314   17.57211991
    1  -10.37777639   -6.21971239   -3.64665553    -22.31212526  -25.69578041    3.75613840     16.33953160   16.20993835   17.41203605
    8    4.15487087    6.68041459   -3.63189764     15.71194285   -8.26628825   -0.90090142      4.37038990    4.30845664    4.32580710
    1    3.60207488    7.10741824   -2.97147133    -13.58988588    4.77131390    5.45272439     16.68435450   17.45626019   17.49252738
    1    4.91201627    6.44270877   -3.04085073     -0.77058900    3.39574336   -6.66506151     17.23698622   17.39082655   16.99471655
    8    9.93625719    1.69043104    4.69969239     15.45640773    2.24712612    6.72912552      4.36842177    4.33584594    4.34723330
    1   10.28581835    2.24396432    3.96483315     -4.94832920   -1.19499785    0.98220225     17.05301188   17.20553954   17.29299438
    1    9.00362726    1.56501773    4.46332195     -9.03471565   -1.03071285   -5.35954184     16.90514931   17.21116814   17.04098161
    8   -3.55121335    4.84696679    6.70017106     16.58497213   -4.08937143    5.03524000      4.37227406    4.31937739    4.34120621
    1   -3.31127367    4.61827882    5.77557422      5.20101600    2.86223854    6.06534598     17.46491606   17.37683932   17.52534910
    1   -2.67926975    4.75191132    7.19660252    -23.97774145    3.17305879  -12.27949102     16.28126708   17.38250818   16.75500908
    8    4.69751817   -3.01648163   -0.84552382     13.85447170    4.57272680    1.08920508      4.36450263    4.34183678    4.33175035
    1    4.36378679   -2.88886411   -1.74644352     -3.71792979    2.10183404   -6.24579606     17.11269834   17.33969673   17.01501566
    1    3.90397921   -3.37036847   -0.42870276    -12.05209877   -4.88394194    7.35653343     16.76844492   17.05561938   17.55736173
    8   -1.67474122    4.78818706   -6.61853814     13.10717743   18.34358855   -0.86661230      4.36354173    4.37579904    4.32644359
    1   -1.93186639    4.04348390   -7.20246075     -0.69371778    1.44829958   -8.84144993     17.23227553   17.33906016   16.90976457
    1   -1.19633612    5.40970726   -7.25165780    -13.40669783  -13.93204707    8.36980318     16.70248562   16.68357116   17.59850961
    8    1.48242185    8.87967440    6.05402841     -8.87010946   -3.86537150    2.38384204      4.30511872    4.31935292    4.33468982
    1    2.17661495    9.11811904    5.41670739      4.14174998   -0.30460172   -4.35997972     17.43390002   17.24371488   17.07252056
    1    1.93312559    9.04454949    6.90453112      0.56441254    0.49076585   -0.61387971     17.29773944   17.28182336   17.25384664
    8   -6.94442944   -3.81823232    0.11250521     -3.26389645   -5.06141412   -4.62489727      4.32021056    4.31463106    4.31660542
    1   -6.54363918   -3.12539550    0.67356355     -4.67368020    4.23073014    3.71722446     17.07296872   17.45419477   17.43371024
    1   -7.52399091   -4.30408286    0.75181305      2.01952653    5.55230541    0.26115279     17.34467411   17.49212179   17.26162206
    8    5.43221261    8.59068936   -7.80172456    -18.22652656    9.07682529  -11.68517912      4.28157758    4.35449271    4.29948062
    1    6.15054153    8.07058906   -7.42658264      6.86919477   -5.71976629   11.09164316     17.54709122   17.00697584   17.71941590
    1    4.68985036    8.45182672   -7.16938205      5.86024106   -1.84203438    0.88617054     17.50195691   17.17698559   17.28679491
    8    0.73380044   -9.84943884   -9.49089557     26.71764627  -10.50206079   19.11520160      4.39822860    4.30280825    4.37977352
    1   -0.21934140   -9.93063907   -9.52999211    -21.78393155    1.59655623   -2.08769363     16.37190470   17.32249989   17.16496740
    1    0.92160036  -10.38858707   -8.67263498     -2.06263293    8.57163329  -14.31141225     17.17156078   17.60486123   16.66656621
    8   -1.44539268    0.35424758   -1.86708615     30.04787097   -6.51680328   19.83575512      4.40712783    4.31355914    4.38108045
    1   -0.44289354    0.35557348   -1.86842951    -25.06004309    0.18186041   -0.77381937     16.23326431   17.26100503   17.22025429
    1   -1.61861857    0.67298070   -2.75463340     -1.43005885    6.28687274  -17.65003492     17.19756690   17.50813518   16.53555717
    8   -6.40794018    5.08337415   -5.06546154     25.78905998   -3.93850529  -10.04953379      4.39650807    4.31768695    4.30295637
    1   -5.49382535    5.42660127   -5.24615324    -15.51597732   -8.25994223    1.14884512     16.62887963   16.92363633   17.30119688
    1   -6.71425995    5.78384415   -4.47410395    -10.51461403   11.66723260    9.60300612     16.81493153   17.75789622   17.66566051
    8   -1.09224732    8.20043524    5.17225446     15.05281523   -1.41081365   -0.05384893      4.36778995    4.32602422    4.32789739
    1   -0.17835869    8.28882858    5.56469210    -12.95101210    2.97863658  -11.26274435     16.74343426   17.37934528   16.79571222
    1   -0.91132150    8.06203278    4.20972196      5.70008215   -0.37541599   12.55591568     17.48822819   17.24066032   17.79578433
    8   -1.81263005    7.71520950   -4.16368783     15.42262849    0.09403750   -2.67867242      4.37032727    4.32832113    4.32239109
    1   -1.22364433    8.33399903   -4.67073377     -8.45758917   -4.54322746    5.74283415     16.90943563   17.07702385   17.48837023
    1   -2.08257506    8.31783605   -3.43978779     -4.57085942    5.03714706    1.36505480     17.06022429   17.48102658   17.32555482
    8    1.60698421   -9.83245226    8.95422436     -8.07091331    8.58277241   16.90913692      4.30958050    4.35238362    4.37330250
    1    1.29933452   -9.77312081    9.89226524     -3.01363485    5.47433572   -4.67229983     17.12448874   17.48099679   17.07419814
    1    2.11229751   10.39060026    9.04552096      6.34100743  -13.10656820  -11.76552653     17.51382239   16.71174449   16.76503608
    8   -6.86964831    7.04878594    4.26552301     -1.68320225    0.81226942   12.40895975      4.32401460    4.33085126    4.36101046
    1   -5.99108466    7.41977251    4.09321614      5.57079182    3.07868985  -10.65830813     17.50754201   17.39300816   16.81269963
    1   -6.96119506    7.34433148    5.20517301     -4.51881867   -2.14488630   -3.50461114     17.07000035   17.17460570   17.13048474
    8   -3.55719490   10.04611415   -6.55384929     -1.45036743   21.66224409    0.27548919      4.32463824    4.38537352    4.32896286
    1   -4.22592514  -10.38217038   -6.99283570     13.33756236  -15.79504804   10.72679358     17.81629484   16.59302628   17.70668742
    1   -3.07409959  -10.35519708   -5.95255380     -9.53304260  -10.07606355   -8.44660284     16.87300350   16.86178371   16.92327218
    8   -6.64214506   -8.26716694   -9.20809252      7.62869310    0.04739857   10.72489580      4.34924817    4.32929174    4.35587708
    1   -7.31303057   -8.05872122   -9.87067143     -9.54291337   -0.89828791  -12.46884532     16.87447520   17.21026834   16.75277056
    1   -6.84093940   -7.53966045   -8.57902020      0.87829874   -0.40099293    1.16194129     17.28500861   17.25644847   17.31856295
    8    3.69363941    0.67139756    7.07417135      3.39536689   -7.51743329   12.90220822      4.33798382    4.30889028    4.36178211
    1    3.46773747    1.20823252    6.28641866      1.75421850    9.40403407    2.36009401     17.33011078   17.64138589   17.36251880
    1    4.05319782    1.33678831    7.72356171     -5.89610612   -3.06329870  -15.49609540     17.02081468   17.15373413   16.63004786
    8   -2.23145500   -7.42725699    9.05847007     15.44282808   21.17613495   -6.05866209      4.36965627    4.38370313    4.31431266
    1   -3.03637648   -7.87179815    9.33721820    -10.78850865  -12.97704333    5.83751295     16.82157331   16.72973427   17.49131521
    1   -1.71235952   -8.14251215    8.64066313     -1.73554208   -5.22106472   -0.06593621     17.17861696   17.05010823   17.25516784
    8    2.42832522   -1.20549915   -7.10345010    -17.21044965    6.02705242  -16.44437952      4.28404128    4.34425822    4.28508653
    1    2.78112415   -0.61918204   -6.42382493      6.58367282    7.51976447    9.66186132     17.54353197   17.58405763   17.68341252
    1    2.91773063   -2.02415215   -6.96244904      7.15247951  -12.69179005    5.63313695     17.55087938   16.73117354   17.49065257
    8    4.65095241   -1.94609129    7.59183536      0.10422446   27.24516302    6.98082421      4.33025047    4.40038707    4.34649243
    1    4.84598150   -1.97617108    8.56621852     -2.57794135   -3.83903854  -10.47519108     17.15023648   17.09924706   16.84296140
    1    4.36530701   -0.98476215    7.49249058      5.19271296  -24.09929825    0.44425196     17.46730081   16.26455434   17.27672140
    8    7.50803855    3.98326174   -8.89763016      5.59975199    4.27725397    6.55758094      4.34300770    4.33929684    4.34635242
    1    7.91857099    3.08854241   -8.87435219      5.52945582   10.25127234    0.93900695     17.48180458   17.69107917   17.29344188
    1    8.23336856    4.57245857   -8.53434088     -8.33979850  -17.18042761   -5.25231488     16.93524779   16.55780574   17.04874444
    8   -9.32374615    3.93743829   -2.01084834      6.88443890    0.17533956   15.83188687      4.34617367    4.32999744    4.37022917
    1   -9.57002470    4.03851892   -2.93350602     -3.18598492   -1.39220875  -18.45847282     17.13229735   17.19537932   16.50754413
    1  -10.10261622    3.45723419   -1.69160296     -3.37323863   -1.56609408    3.55936513     17.13271368   17.19874566   17.40028129
    8   -8.04604474  -10.25099564    8.91609924     -4.05585728  -11.73104082  -16.86943806      4.31966305    4.29840801    4.28410298
    1   -8.29030903   -9.41815677    9.31611185     -1.21552689   19.89082591   10.12168827     17.19759289   18.09773124   17.68879924
    1   -7.70059467   10.28937479    9.68372554      4.01652461   -2.80839388    4.85014566     17.42400792   17.13398566   17.46931788
    8   -5.22599860   -0.69292549   -7.22594753     -6.83688056   15.22655550   19.19729027      4.31275986    4.36858328    4.37923245
    1   -5.00390054   -0.60352104   -8.14568957      4.70739366    1.34750782  -17.25665950     17.44445382   17.30837692   16.54971030
    1   -5.37205280    0.26771762   -6.97987494      1.99115585  -17.08146945   -2.69570040     17.33361489   16.56555601   17.14591576
    8   -4.73686494    7.54084673   -2.13631636     -6.52612674    6.90389894   -0.96872865      4.31101379    4.34713576    4.32758962
    1   -5.45270344    8.15889804   -2.42656963      7.16410464   -6.23254083    0.17710982     17.55967876   16.99063951   17.26342036
    1   -3.96850174    8.13676882   -2.19806351      1.36321395    0.96081378   -0.50767461     17.33152016   17.31352118   17.22922494
    8    8.33318770   -6.20966966   -1.53234336     13.62429958  -10.31210324   -7.34343262      4.36619614    4.30273829    4.30939974
    1    7.92717376   -5.57519045   -0.92566809    -16.65764481   13.58978827    2.96622614     16.55426614   17.82893908   17.39221015
    1    8.62843523   -6.83586806   -0.85241644      4.01143399  -12.46988777    3.48787101     17.42127118   16.73204216   17.40632151
    8    5.79356020    0.25183702   -7.06478433    -18.14733173    7.25513977   24.79911343      4.28085983    4.34826895    4.39310904
    1    4.92029453    0.37486225   -6.58601031     11.33025376   -2.30072786  -15.21497736     17.73339536   17.15878291   16.62140357
    1    6.34462851    0.58494755   -6.32808105      6.75614204   -7.14644902  -10.59604729     17.55140432   16.97027304   16.84346418
    8   -8.21556301   -3.00687286    8.66182430     -7.71025380    0.28276752   13.78855717      4.30792467    4.32973010    4.36452043
    1   -8.83696882   -3.20624209    9.40831352     -0.42717516   -4.03995196  -10.59744622     17.24072770   17.08833800   16.81518491
    1   -7.49930655   -2.60282774    9.19962872      6.03241139    0.99193000   -5.06570576     17.52801010   17.30964388   17.06738686
    8    1.36600789    1.09113933   -1.58010729    -16.44271188   13.01766493   10.12233340      4.28747690    4.36261351    4.35572844
    1    1.35589027    2.07661108   -1.64053523      5.10560673   -5.14540690   -4.82172874     17.46374657   17.05964121   17.05635189
    1    1.01761827    0.99960754   -0.65921184      6.93612109   -5.26979581   -2.32572858     17.53790470   17.03815357   17.16660870
    8    2.44407193   -4.24625991    0.29411438     27.96087700   -2.38627898    4.48381337      4.40208880    4.32332874    4.33946599
    1    1.74225979   -4.31360895   -0.38045805    -12.26731123    0.94417096   -2.72892951     16.76841375   17.29351294   17.15979438
    1    2.00342644   -3.84470998    1.06709657    -11.86963802    3.51807061   -1.62101088     16.75451963   17.40637972   17.20089269
    8    4.99687231  -10.10845487    1.77030261     16.36223100   -4.68680983   -2.46481078      4.37194260    4.31633990    4.32401357
    1    4.05760849  -10.05408769    1.99433141    -15.00324571    4.05973175    1.24914995     16.64387830   17.42641170   17.30179984
    1    5.10951651    9.95216997    1.77882326     -0.45398445    1.31136220   -2.67154787     17.23744871   17.32738857   17.14097294
    8    1.74783953    7.87375139    0.76339679    -10.07913988   13.96907343   13.24437597      4.30428632    4.36605208    4.36358494
    1    2.00009892    7.74588168   -0.15786863      3.94421809   -5.44058974  -13.68601728     17.41264008   17.02828146   16.70155140
    1    1.30732251    8.76357208    0.68118036      7.03020386   -8.17128639    2.22121978     17.54231156   16.92125230   17.34688418
    8    2.17152043   -5.58909971    7.63910337     15.62331102    6.46812166   23.40978211      4.36959527    4.34666504    4.38927757
    1    1.50250432   -5.69074054    6.97652147    -20.26288973   -5.34439129  -22.99708105     16.43688403   17.03317318   16.31835785
    1    1.59666847   -5.26154885    8.37414408      4.73314060   -1.78447134   -2.57638046     17.44634588   17.18352442   17.15700082
    8    8.97581143   -5.12104350    5.37099527     17.49121910    8.53600135    0.67122775      4.37433949    4.35124736    4.33002258
    1    8.25509060   -5.30838749    5.98246195    -13.86908664   -7.08652443    4.57186407     16.68501491   16.96286072   17.44430610
    1    8.67508402   -5.49013363    4.52901034    -11.47257929   -3.70558764   -6.16989040     16.79287645   17.11459572   17.02372649
    8   -9.92184902    3.96043625   -9.92476908     -5.19029042   31.29815037   17.67333108      4.31592449    4.40991951    4.37573939
    1   10.49894513    4.09036081   -9.14682675     10.06891301   -5.27202926  -15.05024554     17.67094452   17.03876718   16.63281218
    1   -9.48842704    4.86551410   -9.87846157     -5.52641501  -18.94114820   -6.90256429     17.03444446   16.49364517   16.97240721
    8    6.34890568    6.39273965   -1.99313347      3.40235004   12.08962392  -12.48098380      4.33823621    4.36236386    4.29707071
    1    7.24302856    6.32358906   -2.41754393     -9.32739001   -4.59074620    5.18476715     16.87523217   17.06094290   17.46773026
    1    6.48745231    5.89052510   -1.18310927      3.87162764   -9.23137164    9.98116230     17.41841045   16.86334322   17.67609088
    8    8.50454193   -5.83062445   -7.27216131     16.17530403    8.92436874    1.71284570      4.37029480    4.35235283    4.33361687
    1    8.78454670   -6.61483975   -6.75419177     -3.22396996   -2.24572455   -2.31805353     17.12388527   17.16194812   17.15942787
    1    7.69192039   -6.15126779   -7.66891321    -15.54826304  -10.85832193   -0.75245893     16.63648138   16.81822851   17.23468153
    8   -2.35201724    3.07969605   -8.59448309      1.15311031   12.55266843    0.66746298      4.33274364    4.36101163    4.33191931
    1   -2.35325335    2.13906113   -8.79617978      2.55008656  -13.32794938   -2.38655424     17.35714903   16.72488038   17.16081196
    1   -1.60044996    3.38846903   -9.14820712     -1.18082693   -0.25792034   -1.72861127     17.21275201   17.24782106   17.17607770
    8    7.84524872    0.27972411   -5.02997127      3.28335173    0.18736196    6.62266601      4.33843655    4.32855957    4.34580287
    1    7.62866119   -0.68264908   -4.92213819     -4.00158974    4.46181682   -0.49173721     17.09262998   17.46187558   17.23120940
    1    7.82780543    0.56551687   -4.08270992     -1.37184507   -1.62606508   -2.98538432     17.19617801   17.19339771   17.15532633
    8    7.78484049  -10.37731304    4.49987455     -9.98268136   -1.66178047   -0.87912079      4.30182818    4.32528154    4.32641329
    1    7.15950506   10.43799693    5.23394577      2.11215670   -0.76214948   -5.57846630     17.34640524   17.22335669   17.02303127
    1    8.58600999  -10.16950104    4.99821922      8.99699429    4.76280842    7.73936140     17.65387120   17.45686831   17.59670618
    8    2.43429463   -6.85692290   -5.07988437     32.60391550   39.91685502   11.29316958      4.41391310    4.43241743    4.35888845
    1    3.44924392   -6.72944020   -5.15561309    -36.06268159   -6.75772240    5.92326223     15.77629286   16.97714756   17.49921327
    1    2.35462089   -7.71067399   -5.47302890      0.73387284  -31.13788486  -17.04484297     17.28536509   15.98749298   16.55746300
    8    2.00286991    7.56073827   -1.99339165     27.86738452  -12.59178193   15.17349401      4.40116920    4.29530423    4.36886675
    1    1.65634404    8.40171203   -2.28751220    -16.61444986   12.36268865   -8.54332603     16.56517477   17.77351778   16.89866002
    1    1.40306736    6.88852915   -2.33338908    -14.26604575    1.65087427   -7.26026502     16.68694854   17.34329921   16.96739492
    8    7.40534661    5.03495296   -5.42213957     -5.95891833   18.16545219    5.56217587      4.31298157    4.37583034    4.34421087
    1    7.75882378    4.19146571   -5.71526215      5.35264723  -15.67465814   -6.69470811     17.47539039   16.62010763   16.98074530
    1    6.42965585    4.86901310   -5.44155396      5.40776987   -4.25178550   -0.24986537     17.50200264   17.08778798   17.24607275
    8    5.98507915    9.06222752   -1.26857794      2.87486626   17.42245911    5.60836867      4.33806724    4.37439423    4.34352250
    1    6.14018024    8.16372112   -1.57340702     -0.64484542  -12.87068825   -8.70600436     17.22196093   16.73865380   16.90372279
    1    5.99583753    9.57986880   -2.11036516      1.87769649   -6.34756489    5.55438775     17.33048069   16.99006783   17.49319058
    8   -0.91155847   -1.04624007   -5.14247663     13.67937383    9.92332619    3.05220394      4.36417268    4.35395172    4.33771902
    1   -1.86541899   -1.24163046   -5.10569150     -8.00120421    4.70857973    2.42833687     16.94561593   17.45447685   17.35334898
    1   -0.87782756   -0.07741185   -4.86702780     -8.64033805  -19.84105137   -5.48028443     16.89601609   16.45538531   17.03358241
    8   -8.03902240    4.00086358    7.46519737     27.92895153  -24.10256482   16.72686438      4.40103469    4.26585435    4.37332029
    1   -8.89589988    3.94647711    7.07408416    -30.96579141    2.72918789  -13.92585334     15.99395647   17.37332982   16.68531132
    1   -7.97888578    3.06524575    7.80089564      2.95104268   14.58488378   -2.26370264     17.38129562   17.87182556   17.15820404
    8    9.40999289   -8.21970717   -6.16285269      6.62732721   12.76247024   24.99380963      4.34660292    4.36144761    4.39379103
    1    9.62378210   -7.88384795   -5.23568137     -5.79195698  -11.18970453  -25.60956654     17.01931337   16.79759527   16.21873590
    1    9.17251410   -9.14906575   -6.00140058     -2.92781347    0.72989112    4.03837980     17.13711633   17.30595765   17.41845147
    8   -0.79666442   -1.06880482    5.41633197     32.38272603    1.91348348   27.34988473      4.41345893    4.33408923    4.39977841
    1   -1.24259926   -0.42876099    6.03460535      1.71230911   -4.55418426   -9.67114313     17.32291787   17.07525826   16.86502831
    1    0.12524585   -1.06971810    5.86668162    -29.94174618   -1.24705029  -21.38085987     16.03190075   17.20683744   16.38170145
    8   -5.82486522   -7.33191973   -5.70894022    -11.05904362    0.09163924    3.27240442      4.30040686    4.33105723    4.33816311
    1   -6.47832898   -6.83502225   -6.23406479     -3.99880670    2.37671903   -3.86344983     17.09630730   17.34411964   17.10182416
    1   -5.09586705   -7.33175056   -6.35673727     11.04353515   -4.58586702   -4.11855876     17.71497598   17.06200069   17.08176546
    8    9.72538274    7.51686306    3.74406253     -0.73845376    3.07801201   10.20335769      4.32621003    4.33727134    4.35551024
    1    9.89213627    7.32718798    4.70199560      1.27070016    2.89681127  -10.34848752     17.31505406   17.37373364   16.84247068
    1   10.50483546    8.08769106    3.54211608     -0.43831761   -6.08247585    1.62120204     17.25696860   17.01538934   17.32253053
    8   -6.12441905   -2.12304741   10.08596759     18.95080251   19.98461786   11.90493809      4.37848110    4.38044632    4.35998567