 BEGIN_INFO
   #
   # This is a XCRYSDEN-Structure-File
   #
   # aimed for Visualization of geometry
   #
   # Launch as: xcrysden --xsf .HICOLM.XSF
   #
   #
 END_INFO
 # estrutura final
CRYSTAL
PRIMVEC
      20.51454578       0.00000000       0.00000000
       0.00000000      20.51454578       0.00000000
       0.00000000       0.00000000      20.51454578
PRIMCOORD
  927    1
    8    4.64785895    3.01935275    2.00555513      9.58523372   40.01111629   49.83607877      0.97466983   -0.35267224   -0.34498338
    1    5.10425240    2.78870860    2.90801510    -20.00596899   16.32202109  -41.27034182     17.02427408   -2.88893967   33.39555570
    1    4.46125735    4.03893869    2.16256362     10.60564220  -51.17894828   -6.77087473      2.11567446   11.54456639  -10.60848409
    8    9.38436882    7.11610561    0.74070629    -39.49758850   59.96327270  -52.25145835      0.08901994    1.61899175   -3.45360587
    1    8.68383635    6.62699517    1.12070123    -21.01910070  -25.10083916   20.44402688    -18.74302986   -0.15027856    0.21995482
    1   10.14239932    6.78651139    1.08888529     59.02390006  -36.75309724   36.26813777     31.57390614  -16.37327072   28.00969023
    8   10.02325204    9.83691390    7.27304602     16.96742356  -44.09854952   32.37195070     -1.67076214    1.80453928    1.10287630
    1    9.93127041  -10.03759744    6.64023606      3.82332330   38.40069266  -63.19290823     11.51506776    3.20396446   -8.36919551
    1    9.44213099  -10.22056030    7.85193733    -26.20503413    4.18489227   32.91391527     -0.99901912  -17.12054881    0.48136035
    8   -1.07431965    6.55722499   -9.37969877    -88.62056717   51.39888401  -31.76202133      3.20401878   -0.72230283    2.04121664
    1   -1.78443777    6.80081704   -8.70156776     16.12762231   -6.82196347  -19.61458756    -29.06370221    7.10202589    2.34479541
    1   -0.49295435    6.21714310   -8.82702545     68.62748373  -39.50235997   56.10664571     -2.67145829   -0.84104094    9.08320334
    8   -9.11478978   -9.03131690  -10.02086284     22.30540530   -5.86714173   -4.15115153     -0.12093433    3.28580217   -0.63413146
    1   -8.70976223   -8.32060151    9.94525986      5.89965761   -6.91221764    0.18452709     -4.86891061   -8.39315278   20.74081901
    1   -9.96777605   -8.64514981   -9.88192708    -30.08553285   10.93515991    9.30544426     16.73438658  -20.59711645    3.34182649
    8    4.62223892   -1.69711991    7.11876524     13.89031420   30.41349090   12.86760392      0.61605321   -3.21721244    1.28941997
    1    5.39852737   -1.06288551    7.12322692    -15.46964935   -0.73421541    1.45165611     -3.09992674   11.17877140  -19.38213612
    1    5.12569722   -2.45110275    6.82519638      2.64097522  -25.13903122  -11.47543366     -0.79888215    8.65760158   -8.91941697
    8    3.08508046    9.68223576    7.16055979     54.17025906  -64.07625462   -6.61319010      1.20600024   -2.11881855    0.01081445
    1    2.46515814   10.11867490    6.66373712    -47.48438916   33.43060653  -35.08310624    -26.70120257   19.81494496  -28.79800338
    1    3.01077995   10.15703158    7.95135906     -6.92241951   26.96173909   37.27540764     -3.43980632  -14.76630816   27.01578896
    8    3.47377687    7.72958879   -5.33439803    -12.18045330  -20.21715258    8.99958928      3.85793393    6.86829933   -5.09098564
    1    3.69391479    8.64029804   -5.21095728      1.34580066   33.29473063   17.77680853    -30.68198744  -87.15080315    2.57706385
    1    3.99665875    7.61766023   -6.12255186     15.51910302  -14.60919826  -23.65185946    -13.40742182   21.71681788   47.50403343
    8   -2.74480139   -6.00886373    9.26605135     43.06158853   -4.45302467   39.32199631     -1.18417720    2.64568472   -3.77185173
    1   -2.78724180   -5.13628210    9.77027462      6.71296554  -23.37183782  -13.47749932    -16.15344830   26.38082759   15.35390501
    1   -1.91880406   -6.48596884    9.74544402    -48.72536749   33.86214315  -27.86692169     40.68434510  -46.65571431   13.30904370
    8   -2.10625913    1.62851764   -7.36959285    130.13513030 -119.29315750   13.63992516      5.41481126    1.56128394   -0.79681659
    1   -2.32360299    2.08180261   -6.67269178    -55.52925882   78.50924618   60.79677620    -41.20723260   -1.62326597   19.24280642
    1   -2.57365788    1.72473387   -8.07826255    -81.91918238   45.03816731  -74.86975907    -10.29668077   -9.97418837   12.68228418
    8    1.68731055    5.14984238    4.09709880     -8.04387192   15.98766019  -21.29059828      0.84958917    0.85320755    2.44410071
    1    1.70703421    5.92520720    3.43508903      1.93309953  -27.37486014   15.72460078     -3.80918060  -22.57280068    8.51724781
    1    1.15057945    4.49480640    3.56526200      8.99911771   14.66900189    6.34869131     11.24236219   -9.38458868  -15.18457570
    8    7.06909737   -5.89779900   -4.99648439      2.57510548  -40.34917785    0.77045623      2.07265186    0.71326403    1.52727502
    1    7.88313864   -5.93664391   -5.54342484     -3.66408199    1.21345733    1.62095821      7.77700296   -0.97294752  -27.41178641
    1    6.90181614   -6.88728748   -4.81513903      4.06316367   30.04599200   -4.71552283    -14.92821130    8.56154157  -13.17823267
    8   -8.83057500    8.56960260    3.34969907     17.84620767   89.38662489   21.41921190      0.02030148    0.85692630    0.56266702
    1   -8.88080940    7.84366886    2.81580474     -8.02081333  -66.74442055  -24.78991784     -0.95212288  -16.76414836  -16.41828890
    1   -9.25023090    8.37591294    4.20735787     -5.86510692  -25.31272959    5.47163402    -12.29573424  -11.14830248   35.23521889
    8   -2.34931287   -8.46238431    3.29682198    -90.73651024   44.20746486  -86.30930327     -3.33037953   -3.04196738   -0.49134734
    1   -2.91392464   -9.08786407    2.59821767     42.53287800   55.67174598   62.62307838      9.81131250   11.43814108  -22.92960534
    1   -2.80965106   -7.48445824    3.06809369     41.09020957  -94.32866495   22.79213196      6.67097954   12.07018272  -16.71527176
    8   -1.52218278    4.31365958    6.35862046     -3.63538670   -7.87300400  -13.88208242      0.55771502    0.00925543   -3.86534874
    1   -1.36308827    4.72487984    7.21685820      4.59007342    4.27741851   12.43930176     -5.40959456   12.86430201   43.35624847
    1   -0.71453152    3.74493375    6.28457831     -5.24351689    2.20333453    0.34421534     29.56761493  -17.96683400   -0.15752292
    8    2.74803793    1.15567265    1.79358077     26.79732845   46.32136560  -52.11102993      2.30832977    3.39091684   -1.45053259
    1    3.42361463    1.95122227    1.81960533    -30.25360250  -40.24779881    6.11093615     -9.73036490   -0.50994656   11.17523086
    1    2.66053295    1.10039146    0.76190696      0.83892509   -6.48985904   47.45564160    -14.99642752  -15.82550622   15.90315720
    8    2.37516498    1.85267588   -7.70949776    -12.26635489   46.13704693   45.94261561      6.69990675   -1.02601564   -3.58438359
    1    1.58172649    1.34397652   -7.39383753     10.14697673    9.37154111   -2.76476009    -65.92671670    5.78145810   32.11457918
    1    2.26006327    2.70333155   -7.08682120      4.09283639  -56.14936605  -41.97424292     -1.11790251   15.13768656   22.57408051
    8    6.30360419   -0.04022769   -7.73706429     -2.56203719 -125.89300255  -44.48726389     -1.17901161    4.73890127   -2.21810680
    1    6.82166764   -0.72140135   -8.45353011    -45.99963206   66.71613791   77.36306113     23.10376945  -12.41393753  -35.62310041
    1    5.70675759   -0.79019712   -7.23312243     48.95913086   60.74847229  -34.81174047    -42.61107085  -27.82250708   27.40240452
    8   -0.63624848   -6.95929961   -9.98729512     61.91686670  -43.78194693   -4.69148095     -2.89804240    3.89652419    1.46745750
    1    0.25284243   -6.55696155   -9.61844321    -38.83715156  -17.08988499  -13.57849342     15.90475578   11.15477369   -4.87943190
    1   -0.27574566   -7.90087166   10.20976588    -24.95344690   55.04673581   19.46655089      0.22001347  -30.41505469  -15.64197993
    8   -4.14269285   -0.16267590   -2.35864728     47.54567513  -26.63252266   19.09843583     -2.07545911    4.04283244    1.17311363
    1   -3.96982861   -0.79072617   -3.08401878    -21.46103674    2.15704295  -16.78687989      7.46238197    3.42669742  -20.69136309
    1   -3.28106215   -0.48805715   -1.92447073    -27.53275296   23.79300959    5.50724014     23.09346298  -29.58843495   30.65065549
    8    6.81858796   -9.51606380   -6.73359457    -24.35314623  -28.47648696  -38.31771479     -1.07661227    0.15867332    1.26758891
    1    6.46749360   -9.34308285   -5.89168623    -18.23797786    9.48974931   36.32916333     24.02615711    4.55173925  -10.87053359
    1    7.67181072   -9.14745540   -6.58756416     39.97128957   16.61047721    1.90440977    -18.08514318   -1.71221378   14.51322033
    8    1.65763351    3.80645840   -5.90214392     44.33009379  -11.01768800  -15.82968911      0.43773141    2.58038958   -4.41021147
    1    0.87022838    3.91156333   -5.39512595    -18.80464717    3.33555404   22.87335260    -31.35744275   10.14318865    2.23908754
    1    2.40228799    3.65665588   -5.24201575    -18.67759865    7.21372316   -7.59918549     14.97583565   -2.10849108   45.20861261
    8    6.61185318   -0.35763689    2.78656038    -56.54161245   22.76785745 -106.73569644     -1.96185973    4.83934255   -4.32280211
    1    6.88121924    0.10206439    1.81757396    -16.93656835  -37.01509647   96.23539019    -20.61073696  -30.35800586   91.94065866
    1    5.60096788   -0.62707618    2.59181996     66.86480955   16.24080147   13.20964461     49.12072421   23.54872361   13.07196947
    8   -5.26557783    2.13201455    5.14961190     24.08473643    2.53736562  -14.83543666      0.14885724   -2.20432426   -0.64598573
    1   -4.87222403    1.78091770    5.96729861     -0.08021052    0.09444763    5.28216996      0.91709795   -3.33978545   -0.71935007
    1   -4.41007837    2.52493739    4.76002877    -24.39763698  -10.01397276    6.76613853     10.66437012    8.31849625   17.48800635
    8    2.56454601   -5.19677964   -2.92251672    -58.04447002   -4.08330784    8.62950558     -1.85207540    1.65178870   -1.01162421
    1    2.03868748   -4.82247803   -3.69909846     19.42854862   -7.30287813   12.03214972     -3.34306266  -32.79129721   -3.09249607
    1    1.75281257   -5.52813399   -2.37760084     34.20198076   12.58584513  -24.29280034     -1.99492000   -4.56799472    3.07992367
    8   -3.80861623    2.24786442   -9.30932204      5.09116012   14.66912492   48.33744004     -0.19199649    2.53617685   -2.96442121
    1   -4.12293786    1.57296572   -9.86067452    -17.95900193  -33.60046421  -31.70687099     26.49104728    9.71186864   21.68678263
    1   -3.48805757    2.88215038   -9.93339205     10.44457396   19.87969653  -25.25562758    -13.06591973  -32.88558965   20.55290631
    8   -1.16335541    7.42391866    3.79493978     47.81936167  106.12687392   33.38092425      0.00135361    0.84598344   -1.15654173
    1   -1.14910401    8.48503356    3.48045365      4.70689848 -108.11256862   31.83102854     -3.86314041    7.63243683   14.96463160
    1   -0.51853158    7.42457707    4.65094240    -49.93891456   -3.09655418  -68.47183208     -2.95683583    8.25021261    3.16052722
    8   -8.82324818   -5.81784645   -1.86365882     -5.30151285    2.23760642   -5.36577649     -6.15845338    0.77975396    4.01518119
    1   -9.18494804   -5.05625141   -1.35925618      6.76401728    4.85036294    2.63875048     45.96639456  -69.08709593  -27.38490482
    1   -9.48415797   -6.49475055   -1.55262916      7.75120766   -1.27733109    0.69861409     28.34777510   22.12563224  -20.33477613
    8    2.77029391    6.01217755   -9.87370467     48.99185359   18.96017360  -39.04997518     -0.48562138   -1.34046158   -2.29557582
    1    3.56836738    5.54129879   -9.50444675     -7.98998369    7.02741889   -1.69390884     23.12548350  -20.27324777    9.68781596
    1    2.09075463    5.71657299   -9.34543160    -40.43685118  -20.46610705   42.63670382    -13.06398539   12.39558626    1.81509595
    8   -1.40848813    8.77048111    9.55158368    -11.92880385   -4.94296060    0.96895101     -0.13971072    0.15091086   -0.12977919
    1   -2.35476045    8.70719209    9.85347341     10.28715360    7.12545650   -2.81280609     -5.26427217   -7.89586385   24.08390067
    1   -1.02536488    8.06294588   10.10222291     -1.16374836   -1.99514839    2.59526084     11.53825737    4.41078080   18.43840828
    8   -3.46469997   -1.85699495   -4.32008846     15.30256146  -15.31763061   40.57252298     -3.30129194   -5.85712234    1.24306000
    1   -2.49916047   -1.74038226   -4.16321233     -6.04713508   -1.76194813   -0.07147813     49.72897670   10.91472601   16.89524208
    1   -3.52620078   -1.45303695   -5.16827737     -5.30610583   16.55981076  -35.10281013    -32.19329413   23.38245177  -38.70403501
    8   -8.65394246    2.73179647   -7.87324903     27.04676325   22.79671121   36.48824836     -1.25187470    0.62885103   -2.45200771
    1   -7.68429275    2.92120462   -8.10321221    -24.95012816   -4.10502575    8.33715865     -6.04425709  -13.36184094   24.78752030
    1   -8.67460546    3.15591925   -6.92723594     -2.18207769  -17.79576278  -45.92237454      7.71742457   19.63681587    6.33473682
    8   -3.01328427    5.62631570    3.17710776     99.16900983   46.71086789  -27.17698260     -0.03577096   -2.56231714    0.45743019
    1   -2.24554097    6.37156430    3.40678652    -66.93210448  -53.70334546   -7.01358720     13.75631837   28.83661445   12.81023616
    1   -2.54412548    5.30494620    2.30686738    -33.58708585    8.00061371   35.87732427      1.03018806  -17.02271896  -30.57064264
    8   -4.75801771    5.24906920   -6.78492132     42.91483602   25.97856926  -11.71902558     -2.45150068   -2.21586704   -2.42021757
    1   -4.00096197    5.91696973   -6.95147488    -22.17673731  -30.69953482   -6.32439986     26.02479126   19.34167261    0.21964747
    1   -5.25985263    5.85702261   -6.24632343    -22.71464105    8.55649056   13.19951218     -0.07707046    4.76643671    4.10132795
    8   -0.70202905    9.12998516    6.87120727    -20.22827142   50.92275958  -21.11291830     -0.30123099    5.78474205   -0.12989572
    1   -0.95623834    8.84254212    7.71115282    -12.84366831   -2.97701477   50.16580887    -11.43802660    2.00996018   37.24483501
    1   -0.36099197    8.35146083    6.55302343     30.47821210  -51.23926249  -25.30396856      9.92891761  -38.82665655  -29.91649829
    8   -8.90092106    6.12968661    1.97630395    -87.44333989  100.86281907  -29.67098561     -0.42621025    2.07506546   -0.95784028
    1   -8.12397296    6.01549146    1.57104636     76.57334725  -10.07918081  -37.51929445     35.90043386    0.73330126  -14.22437864
    1   -8.92807786    5.45129798    2.50971364      2.55521074  -83.30595757   62.52847445      9.96823768   10.63157113   -3.87069217
    8   -3.90325343    8.82370760   -9.77932417     -8.43675566    5.01660570   -7.95850879     -0.72473434   -1.08849955    1.31176999
    1   -4.63700915    9.44746481  -10.00888006     13.35010110   -5.78955164    4.45024454      8.54095254    3.08331486   -0.67228680
    1   -3.78341587    9.06844691   -8.83950950     -0.40681502    0.06663516    0.49467189     -9.73445912   20.81890281   15.24900543
    8   -8.46696025    9.37711946    8.98973377     30.45090167  -41.58199721  -21.46545333     -4.39634573    1.76314037   -3.56912439
    1   -9.24297023    9.34876380    8.44118485    -12.58857579   -7.53736358  -25.21659650     28.31648876   17.88489940   22.38137018
    1   -8.81355527    9.99981643    9.55614383     -9.71411552   45.72024996   45.61740492     15.90420653  -45.44801363  -55.46609836
    8    0.69183775   -1.02077755    4.32245107      7.39824942   -2.86111228    9.12761287     -1.65351335    0.20213056    0.30378430
    1    0.70750882   -0.14718677    3.91215388     -5.48292759    5.58483542   -4.69615181     16.53579446   -5.01176801    9.60832376
    1    1.32460513   -0.84008284    5.06202751     -4.70428510   -7.72000836   -1.08749814    -11.99150938  -20.89461296   -2.55789939
    8   -4.16969960   -9.10274699    6.62806364      1.46133506   28.65397114   -1.64044324     -0.62965695   -2.48815550   -1.43134055
    1   -4.91169500   -9.62607774    6.98915467     -7.72681666   -6.37108701    1.33985194     17.06925140    0.96100000    7.55167260
    1   -3.63926711   -9.78914633    6.22834965      8.36660490  -16.17460231   -4.52032937     -7.70931832   20.46325739   20.29809474
    8    0.20275489   -3.47493610   -8.87591321    -10.26668339  -33.72521456  -28.85193776     -5.30525823   -1.06316208    0.62989018
    1    0.58302206   -2.85465600   -8.30806222     13.36855731   44.94381081   29.91003293      9.40901557   24.78047870   14.11870369
    1    0.76784581   -4.21627451   -8.62722724     -4.94846852  -13.66551013   -4.59956841     29.49817773   -6.64871716   -2.08943000
    8    1.91791882   -4.62346554    5.57448821      2.39376607   -1.27583668    0.35021005     -1.23728738    0.01079630    0.60970613
    1    2.37144928   -4.62917365    6.44280435      4.97204303   -5.54779024    1.45513261     -4.43418497    7.22425631   -6.49148039
    1    1.08083281   -4.22175317    5.85543894     -4.25533794    2.79407457   -2.91477221     -3.63233391    9.46923008  -12.04141143
    8    4.76483061    1.65086417    8.88672484    -43.66575306   -0.86031835   -4.01099584      1.90181214    1.46399029   -1.03373714
    1    5.21274328    0.88213904    8.57337605     17.41423297  -18.18960728  -10.30851981    -38.17493758  -30.46814982   -2.00149143
    1    5.48338576    2.19321556    9.13507678     28.18244978   14.76493072   14.24296985     -2.78899407   -9.71155544   -1.37578133
    8    8.83505649    1.51142796   -4.04900243     29.91677176    4.38539388  -19.13273060      6.47978399    4.60816203    6.85517924
    1    8.51715839    1.42493644   -5.00786953      0.85147263    4.19086956   15.24115938     -5.86340964  -25.59272448  -88.69652055
    1    8.14631538    1.03567701   -3.59801380    -23.47611113  -13.39427690    8.91115938    -50.72656226  -37.86071693    4.86561678
    8   -9.96707622    7.80135424    5.63492109      4.13841982   -4.32529304   -4.43608363     -0.43014473   -0.20231464   -4.53532811
    1  -10.10001570    8.43785305    6.34229675    -11.30279941   26.52166661    2.95707885    -21.79713207   44.01030880   59.07451142
    1   -9.48343860    7.20144620    6.20965745     12.63709658  -21.15437828   -0.22526590     19.09130776  -42.70302790   12.79642735
    8   -8.38743276   -2.83626996   -9.23777619     70.37548432   44.50011032   -2.38781092     -1.04891289    1.41331203   -0.74726734
    1   -7.55229096   -2.57230585   -9.81932679    -50.91500659  -27.14964557   25.81958961    -37.12475139  -25.25059225   23.03483082
    1   -8.08170612   -2.28949935   -8.43125608    -21.79758948  -19.05269879  -24.66731101      1.70185737   -9.65594761  -27.37446836
    8   -7.34669078    4.26517278   -3.38497384    -11.60800916  -33.99114001    3.93646849     -0.67585138    0.90353319   -2.52605968
    1   -7.91880363    4.41276000   -4.15497645     -4.21182142    1.10651200   -9.60253512      4.42455691    4.28982481    8.55288992
    1   -6.93906171    5.10930383   -3.27388859     13.97358642   27.21285066    6.04619016     11.80561162   -0.51034443  -25.65130774
    8    6.21578070   -8.40521685   -4.31509883    -25.44947316   15.21300930   12.86317585      0.72237270    0.41850340    1.46370496
    1    5.41735289   -7.98858671   -3.84348701     20.62294522   -9.46169028  -12.74596780     -1.83996510    0.01147566   -3.55930804
    1    6.31712006   -9.21477616   -3.77959331      3.52013460   -1.92206229    4.44464466      2.38589972   -2.42212878    8.15016155
    8    3.54010951   -2.23871491   -8.83532281     10.91598883    9.75927346   27.24802034      0.55738243    1.18199224   -0.33779534
    1    2.64019622   -1.92374512   -8.60753452      2.38352892   -0.83795562   -0.30180897    -21.70125661   -2.14725551   -7.18132290
    1    3.99398896   -2.02862666   -7.94680344    -10.02682098   -9.78144943  -26.14024675     16.08429787    6.99380013   37.31957219
    8    9.94002368   -4.12268772    6.04956973    -11.50337072  -42.14277774   52.01777019      5.95668274    2.32704201    0.16764566
    1    9.40978792   -4.90605984    6.48670630     18.02538807   36.19657841  -28.39363263      5.83744365   -1.56850433   -2.09577511
    1   -9.86969829   -4.08884105    6.78024632     -9.86458817    7.03810184  -30.90493433    -37.06897992   11.34573122  -12.46218187
    8   -0.97280247   -0.66715323   -3.62523489    -18.21858893   21.17879503   74.15383492      2.56090547   -1.17079597   -2.89088604
    1   -0.84466720    0.32539478   -3.75722642     -1.51079129  -25.32626197    5.10860322     -6.83525682   24.41175092   -0.62548136
    1   -1.23838691   -0.71357565   -2.58052450     21.88145327    0.15746643  -79.05925895    -20.24344837   -0.83224477   41.81425709
    8    0.20875160   -6.16521916   -1.99438211   -131.80423672   11.65325569  -24.73054212      4.91328367   -1.18980799   -2.81178497
    1   -0.47230111   -6.28677605   -2.85998151     68.56310625   18.26868411   78.12906649    -18.39650295   12.41497781  -19.87050206
    1   -0.53324188   -5.83330765   -1.28733429     60.98160775  -23.87634517  -51.77234689    -29.91399140   19.98852452   40.92757387
    8    2.56663834    8.32238060   -0.57797571     79.28006689   20.85142668   -7.26299004     -1.18107171   -2.17750246    3.27266594
    1    1.76413408    8.01705205   -0.40217017    -88.84451833  -23.50885920   18.37734740     77.49201766   21.89527921  -22.79077140
    1    3.04411882    7.50343389   -0.38959654     10.01940369   -7.46332778   -2.10336765    -31.06257383   34.05739873   -4.57936407
    8    0.73591839    5.35526782   -2.35319785     59.95849618   26.52534165  -17.80928780      2.45564531    0.64353285   -1.52236010
    1    0.30121108    5.18955930   -3.19327203    -13.72952784   -6.64747169   -4.88713792     28.26837643   18.34746333   11.54536178
    1    1.63485212    5.73177415   -2.72803160    -43.42162652  -19.47665743   23.22218139    -56.36389905  -12.69868862    0.77797174
    8   -0.47792410   -7.61084521    5.05528391   -128.62772135   54.22610540   26.44227068      5.56620656   -3.12706621    1.90270613
    1   -1.33510374   -7.92651863    4.45255485     76.59700455   23.05574670   49.91804452    -38.43011049  -16.06231814  -21.59207159
    1   -0.99714790   -6.96046608    5.81440038     56.29655334  -72.59033721  -80.75120272    -13.79599995    6.90356130   50.74555179
    8    6.46524115   -8.12859617    2.99589625    -10.61641695    4.37134627   15.62950276      2.08175041   -2.60491670   -0.70491235
    1    5.63135327   -7.92662859    3.49898586      5.46712620   -5.54985285    0.20679881      1.00360456   -0.01987875    4.49112434
    1    6.11139416   -8.08756870    2.10574514     -3.17537815    0.99249091  -19.66612195     -5.51239420  -12.49456200   39.83442084
    8    8.71724268    1.39747268    8.32645274     37.70991871   28.03192588  -10.42836602      1.75818980    0.98734525    0.35037381
    1    8.15435767    1.74062450    9.06816753      1.01291503   -0.86129307   -8.56676633     21.99513605  -14.18034111  -40.76548947
    1    9.23992712    2.25241641    8.04443658    -32.00355353  -37.41889350   15.86873364    -11.21790122  -29.44519826   22.55984200
    8    3.94818266    3.73422969   -4.37438543     83.45136437  -38.63067619   33.36908711     -0.68399980    0.37376746   -5.98105402
    1    4.90973712    3.82154873   -4.83181307    -65.07051112  -12.20869748   30.89710212     13.58950446  -20.43550395   24.62743408
    1    4.17822947    3.02768366   -3.58464554    -16.28821663   49.50133399  -63.22643394     34.53616601   -8.88435632   28.29071120
    8    6.29623079   -8.06380647   -8.91791802     46.92459090   49.49700722  -30.05452343     -0.21695501   -2.10659113    0.78834257
    1    6.33586396   -8.48965499   -8.10682397     10.77697747  -26.58645218   51.43359317      2.77981993   -1.85434715  -24.19804889
    1    5.51886002   -8.42821151   -9.20639503    -56.85272018  -22.18769519  -26.23848262     13.71577276    7.12685471   14.12472048
    8   -4.86829186    0.53873685    9.38735324      8.83803909  -18.61650207  -10.17013673      1.52523325    2.73556210   -2.52996556
    1   -4.47809490   -0.37251469    9.36657097     -7.76144466    9.88619225    1.79919343    -14.41690599   23.34849626   12.99990183
    1   -4.59625722    0.83700119    8.48793778      3.85156817    2.76292266    5.92317972    -15.99170647   -8.93807235   43.99819746
    8    4.94563787   -2.01783394   -6.52139102      5.27359540  -14.30588822   23.11208010     -0.14663040    6.84527466   -3.44685721
    1    5.01838053   -1.83470326   -5.51959042     -1.20681131   -8.76482578  -29.26463798      0.51509843   14.47512407   58.36830356
    1    5.13285156   -3.01641201   -6.54274031     -5.09712878   24.99253091    6.28357667     -2.66605102  -68.44194507   -8.29881513
    8    5.52588465    8.87169801    2.09394439      8.39051641   -3.94202110  -31.13527525     -0.57834768    2.53520696    0.91250267
    1    5.04408265    8.68140531    2.87853529    -26.93447924  -13.66310474   24.15296247     27.04984701   11.54497617  -42.34429585
    1    6.28913707    9.22461155    2.54175894     21.00185002   12.56757535    6.81279675    -25.22532502  -17.50789998   -6.35525084
    8    0.61190526   -8.64986694   -6.86662237     17.50594130  -35.16944190  -28.78368487      1.88225890   -2.08745811    0.23833086
    1    1.62328152   -8.66330992   -6.91111749    -25.97287308    6.11213936    7.95880893     14.59513213    8.55864370    6.06951405
    1    0.45117803   -9.46853742   -7.46269324      5.99759556   30.39428405   24.54015729     -2.39303318   -4.87840649   -8.89729116
    8   -0.76591157    4.61041542   -4.64208795     22.22364519   -8.10278994    8.08040909      0.32599946   -3.06105862    3.22551355
    1   -1.10559378    5.48646797   -4.71487019     -2.27910168   36.63308687    6.22615770    -15.52312294   60.65392230   -6.13431822
    1   -1.47534061    4.23588758   -5.14170108    -22.43236224  -24.90663510  -15.08790336    -23.97188124  -14.42083120  -24.66429321
    8    5.03185724    2.52101408   -7.79149599    -32.70498266 -109.06658116  -60.69644145     -1.98057893   -8.78890738    5.68081465
    1    5.67686851    1.82914436   -8.31755183    -58.37640556   57.61331416   51.28707270    -26.35192647  -13.42005512   22.01662208
    1    4.08542457    1.95011543   -7.84269314     89.07352427   63.81685559   10.99371531     57.89284391   29.23937586  -14.47403831
    8    3.18392317    6.06378253   -3.30515424     46.83293514  -24.54424691  -70.18843824      2.50596754    1.92787097   -7.73786958
    1    3.62308874    5.19508197   -3.79571339    -41.65554490   69.61162058   37.36739225     -9.45497355   52.64792237   33.91380644
    1    3.33083450    6.82309616   -4.03338798     -8.81744255  -49.97503845   38.92510168      9.78256293  -54.64868817   54.87159159
    8   -3.15683001   -3.11767737   -7.33771240     41.42693248   -3.12922105    0.47848754     -0.92913690   -1.00510042    3.05160819
    1   -4.03323422   -3.36576829   -7.51288640    -41.00708411  -19.99100759   -8.27624509     22.76708982   24.40074702    9.32587953
    1   -3.32037068   -2.19447640   -7.13351436      3.21960842   20.73547366    8.21071899     -9.92889469  -30.30126733   -5.87296971
    8    9.96451393    0.98338204    5.10900522    -13.62987933   -4.38552865    6.78772688     -3.31085442   -6.16076574   -0.49590135
    1    8.96235378    1.06785731    5.12378946     13.22402854   -5.22864733   -2.04794787     53.67055045   10.91808231   -2.41425592
    1   10.04732530   -0.00246180    5.14732466     -2.45869118    3.53121418   -4.03914989      0.23852779   85.64137784  -18.94253955
    8    7.20758600    8.81167474   -8.42415163    -41.22824654  -35.54257842 -139.34397997      0.34206628    0.91389420   -1.40744264
    1    7.04406710    9.51079184   -7.97775860    -22.35837705  100.95251136   59.18142227    -12.53062538  -14.83103938  -12.97663028
    1    7.63542733    8.36934819   -7.83069151     64.02332328  -59.69296732   75.13119256     12.13037001  -13.31794215    5.86353562
    8   -3.19296874   -3.43733104    3.00222575     63.55319381   82.58899926   83.53071893      1.51774043   -1.32431938    0.88176259
    1   -3.61508133   -2.54946965    3.46305556     34.32867138  -72.67102129  -40.61297207     -8.37135849    5.14872296    5.10832980
    1   -2.20384207   -3.34816675    3.47642646    -87.02247367  -13.06144099  -46.96355690      5.30870335    5.36757734   -5.30067435
    8   -7.42894447   10.08077109   -8.43203790    -22.71789010   19.98324457  -25.84305238     -1.78551478   -0.31053088    5.62829809
    1   -8.21337584  -10.01425223   -8.96017471     38.74489244  -12.91272754   17.81306680    -21.79875765   40.07695179  -56.37378450
    1   -6.62399411  -10.09133354   -8.92783419    -15.60822440    1.67797959    9.40154763     53.31483589   35.30961154  -51.37641060
    8    8.74292139    3.81334556    1.41637809     11.34579299  -17.74428524  -38.52943370      0.63476162   -0.44721871    1.90024800
    1    8.39269418    4.25131052    2.15535137    -14.57159016   20.27406181   39.24558569    -10.21384705   -9.13401418   11.85314027
    1    9.31916264    3.13943577    1.83058588      1.40017927   -1.28256733    3.04111336     -6.75939522   -0.66882414    0.98896844
    8   -8.36189372   -4.02918898    7.47103258     52.94105956   47.75618612  -14.03445370      2.40841124    0.70344897   -4.05874528