 BEGIN_INFO
   #
   # This is a XCRYSDEN-Structure-File
   #
   # aimed for Visualization of geometry
   #
   # Launch as: xcrysden --xsf .HICOLM.XSF
   #
   #
 END_INFO
 # estrutura final
CRYSTAL
PRIMVEC
      20.64008207       0.00000000       0.00000000
       0.00000000      20.64008207       0.00000000
       0.00000000       0.00000000      20.64008207
PRIMCOORD
  927    1
    8    4.62800470    3.02228005    2.07352235    -10.42209348   -5.01904214   -6.77560586      0.00066545    1.56472868   -0.70949483
    1    5.10338657    2.80910986    2.87234823     13.42991981   -6.44035275   17.39703033      7.41178563  -10.03822542    5.30753181
    1    4.34758617    3.90876673    2.36410573     -2.57834676    8.02794019  -11.31317407    -12.50316078   11.44025365  -10.16341935
    8    9.24764200    7.65439687    1.02297610     27.00028448    9.44836836    0.02039531      1.92935746   -2.32247943    0.07509729
    1    8.40184961    7.29717321    1.22861712    -22.00638341  -20.17243575    9.16889569     -8.25883322   -4.15593585   -4.89572967
    1    9.86740882    7.04321329    1.49830264     -3.71264402   10.91012622   -8.23956688    -16.04415503    1.51602367   10.33938449
    8   10.00185877    9.90869458    7.11465666      5.70960354   -7.24418940   -2.93529105      0.19344929    0.62547560   -0.57323532
    1   10.03709955  -10.10151597    6.36195207      0.90851162   -0.13225525    0.84795194     -9.59679340   -4.10984115    1.72142287
    1    9.27317431   10.27614710    7.63733462     -9.78408743    5.41420244    3.69433082      0.12694840   -6.14157953    6.47458078
    8   -1.26767601    6.49030434   -9.25511333      7.01918011    1.06978065  -29.33220807      0.30683864    0.71248825    0.10670532
    1   -1.79566309    6.84993503   -8.56605953    -24.90058415    9.68571205   22.92659546    -18.26551362    4.45007022    7.62610131
    1   -0.57504255    6.11756523   -8.70842263     17.77527335  -12.33239306    6.78546449     10.23614670   -5.17389889    8.30535139
    8   -9.37720467   -9.10811547  -10.17246008      3.21442167   77.70640833  -40.32256510     -0.03343408   -1.11023855    2.02784888
    1   -8.84908482   -8.39472583    9.90291172    -27.12578447  -48.15993612   30.07333205      0.17110631   -1.22175879  -10.58829475
    1  -10.24581203   -8.57777307  -10.05328800     25.84313134  -29.12152136    2.37051152     -3.77143178   14.92806361   -9.69724577
    8    4.76491490   -1.70175612    7.09019009    -11.62941656   31.99285172   25.63723538      1.91111788    0.57885110    0.83622887
    1    5.50959385   -1.04497407    7.17855910     -7.57084575   -8.10041356   -5.95414296     -5.21210777   -3.05501195   -8.18652839
    1    5.11024625   -2.32660682    6.47603746     18.20029325  -21.81328188  -15.48635977     -9.59204873   -1.24325062   -5.14824468
    8    3.38202966    9.69611121    7.10207970     27.23268734    4.99176255   40.72707217      2.18827207   -0.12025259    1.52944835
    1    2.67251379   10.05192455    6.62404955    -35.63890625    8.46528498  -33.40490856     -6.08984253   -1.16580367   -9.08169679
    1    3.23676453   10.29034629    7.87697522      5.97706800  -10.44992801    0.49274427    -10.67673651   -4.55947250    3.38025448
    8    3.34381361    7.64838165   -5.36513826     42.76202434   55.97546998    9.08788361      0.43153492    0.12078399    0.36761935
    1    3.65667387    8.59447832   -5.05080503    -26.72999209  -48.72083777  -12.47322724     -7.60051481    0.45924795    8.07664479
    1    4.15251403    7.46636409   -5.92628285    -21.83537200   -4.11677128    0.42882110     10.81024193   -8.08790475    6.42857277
    8   -2.71798319   -5.91863177    9.39968403    -32.21051364  -13.47889875  -31.88539169      0.38139381    1.13897280   -2.97622885
    1   -2.64152932   -5.04483514    9.76055030      1.78936869   24.82288323   13.57614728    -12.72801056   13.05149252    6.65212994
    1   -1.95790761   -6.33037874    9.79341415     24.59358307  -15.23354108   11.83970145      1.96057605  -25.82852742    0.90699193
    8   -2.28313500    1.89879922   -7.57133179     25.54458797  -25.86721742   32.47248408      0.49518574    0.74473795    1.15979327
    1   -2.41419880    2.62579818   -6.93792128    -10.94046051    9.07395426   -7.68153175      4.19410449   -6.00208438   -3.61233474
    1   -2.52966683    2.22260071   -8.42978201    -17.55711071   16.51535302  -16.75763655     -4.45914472   -6.96851252   -5.22023976
    8    1.65407468    5.12748861    4.34848686     18.92048136   24.43715107   31.26880254      1.05794674   -0.21638875    1.09879030
    1    1.87772339    5.81879342    3.69862842     -4.25198117    1.08946224   -9.55498928    -11.76403084   -8.53602325    4.31560817
    1    1.25819009    4.47444558    3.80788061    -17.52900187  -22.43451274  -22.76463695     -4.54334681   14.71203138  -15.82472583
    8    7.07221814   -6.09292861   -5.00630114     -8.22499699   27.06237071    1.14167934     -1.08922535   -0.39198975    0.73762000
    1    7.94429542   -6.14240065   -5.40340569     11.78104018   -1.18680835   -9.91468133      1.43044257  -13.82480036   -8.68583117
    1    6.93513374   -6.98382359   -4.70568021     -4.58822024  -29.00324832    6.46335658      7.43207864    4.36631939    8.39650964
    8   -8.74608306    8.76199064    3.50123870     -0.21369573   29.26787137   29.66353231      2.12826007   -0.82450933    0.43403530
    1   -8.76848067    7.97371884    2.99543908     -0.72143929  -30.22605182  -23.69977779     -9.98000838   -5.62390269    8.34968434
    1   -9.00218782    8.39956825    4.38342351      1.23062846    2.06421345   -4.52991353    -15.18591959   -2.17515160  -11.68111664
    8   -1.76170406   -7.94361929    2.85300759     27.43657099   28.12184365   18.64092773      0.63858024    0.12385350    3.18639251
    1   -2.37378473   -8.51260644    2.43659560    -20.14969155  -33.14994208  -19.55152327     -0.66898379   19.36250106  -14.36572462
    1   -2.34778748   -7.16555745    2.89846146     -3.54442961    3.27424246    0.02729158      0.97345204  -14.30622074  -13.08174102
    8   -1.59422211    3.92681626    6.68112035     14.57651752   20.24079322   29.29248886      0.45232936    0.23958722    1.77304272
    1   -1.19510978    4.41352080    7.49891022    -20.08919110  -21.68942168  -33.05719146     -7.80389593   13.92897620   -4.66883390
    1   -0.81298620    3.42907699    6.34570551      0.81126298    1.20626234    6.53543959      4.78744181   -1.22103043  -26.99624488
    8    2.79780962    0.93491907    1.75438515     34.99943163   24.31959205   29.26412621     -0.09984740   -0.16779718   -1.29723725
    1    3.52831963    1.63324731    1.86245099    -24.05185395  -20.75769070    0.77063369     -3.94168960  -13.99665417    1.34786327
    1    2.59599116    1.11304319    0.84750419     -7.15713407   -5.01596373  -28.66921625     -0.25515542    9.18704557   -0.99325086
    8    2.29045408    2.17616093   -7.81512209     49.60672863   38.47276992  -18.71245115     -0.36388091    0.16422356    0.43031573
    1    1.62737828    1.62725336   -7.55540210    -50.45115237  -47.24348647   13.66563388    -15.80514566  -19.46236687  -12.33079264
    1    2.14266623    2.83022060   -7.12089824      1.44104116   13.38374271    6.50141738    -11.85162030   -4.57498108   -1.84788174
    8    6.20380666    0.01996070   -7.54652204      4.48213968  -25.16506666  -14.39254341      1.36950810   -1.05933886    0.26259805
    1    6.68520939   -0.60382397   -8.16251753     -9.20231892   13.06595305   10.59445133    -16.35445453    6.80853941    4.26219090
    1    5.66984840   -0.65955416   -7.06802681      2.00601127    4.93357302   -1.05658502     -6.78321568    4.80489201  -23.50412735
    8   -0.54371790   -7.12740498  -10.26320900     10.63487344   15.86763343   10.50569460      1.90931038   -0.54504168    1.77110587
    1    0.29239697   -6.89194830   -9.76725700     -6.78487293   -4.16733484  -12.74507884      2.49073942    5.66937150   -8.53796637
    1   -0.33229484   -8.01649301   10.05154088      1.97807705  -10.27519619    0.72075441     -5.06665239   -0.64700026   -9.96651418
    8   -3.91411370    0.26130304   -2.37202095     30.45738340    8.45208147   38.85451883     -0.02930776   -1.15584093   -0.47725658
    1   -4.19801455   -0.43668394   -2.95737599     11.05898518  -18.10229680   -8.56068116     -1.39365086   -5.74438835   -8.91440996
    1   -3.04471147   -0.08119602   -1.91334737    -44.27493204   10.90922982  -27.53370342    -13.63647049    9.06883811   -4.80545389
    8    6.94623506   -9.65018008   -6.69518618     11.09290645   -0.52104967   -7.13944009      0.00442743    0.20804342   -0.66403347
    1    6.51358719   -9.50943225   -5.83441239      5.75704570    6.68517655    3.14591123    -12.42691150  -12.39624310   19.67160216
    1    7.83775103   -9.19460825   -6.56572589    -19.41659853   -6.30764575    1.33547916     18.18364395   14.75422235   -9.43700350
    8    1.69803869    3.92878122   -5.80923811     14.94232650   -4.14380441  -30.04431033     -0.29259839    0.88666099    0.14408075
    1    0.97798790    4.07817465   -5.23420794    -34.30120972    6.85184260   20.29070547    -14.15479335   -6.60924061   -4.39310072
    1    2.41087621    3.88916053   -5.17144398     19.23290952   -5.31041421   10.26255192     10.79103758   -2.83167341   -1.71227334
    8    6.49951487   -0.57630582    2.78983847     14.53207828   -2.34160123  -21.90559522     -0.23527708    0.00933095    1.10483116
    1    6.97058390   -0.30881499    1.95413125     -5.43909568    5.18678043   16.02636348    -17.59822433   -7.96516103    5.48734825
    1    5.64463717   -0.84913849    2.40978329     -7.73952344   -1.47279118    3.90141050     11.07770626   10.13336186   -1.31495215
    8   -5.15727303    1.95858425    4.95185945    -25.10691406   -2.00623434  -12.70111140      0.77943788    1.24945491    0.31206407
    1   -4.70612009    1.63950343    5.71648560     10.54388140  -10.15436833   24.58062571      1.12451095  -15.83342170    9.89299118
    1   -4.43141908    2.45385871    4.58352844     13.43451212   11.79820584   -9.85058132      0.26784055    0.34485358  -20.51704699
    8    2.38994012   -5.29457748   -3.14807915    -38.44734383    1.80534664    8.91410604      0.23987672    0.54015941    2.38078996
    1    1.95933866   -4.82370131   -3.91621675     10.77123850  -13.79103408   10.59203925      2.70576785   -8.13794879   -1.55647415
    1    1.54888010   -5.54722937   -2.61973562     30.25682175    3.42183621  -22.39194071     -1.79203925   18.83367387  -11.64195492
    8   -3.92194412    2.55583610   -9.59540159     -3.97594915   13.45023639  -10.71816408      0.15802949    0.03002884   -0.39775275
    1   -4.31369151    1.83319000  -10.12747271      5.24713903   -3.12944719   -2.13679533      0.43422130   20.24824597    7.27298172
    1   -3.75373464    3.25663444  -10.28650337     -1.16254921   -8.07025796   10.79616297     -4.48841628  -19.34129593    7.51663245
    8   -0.82030233    7.74483628    3.89996109      9.63521575    6.26687574   -2.99676450      2.10428314    0.62949317    0.96338020
    1   -0.19577946    8.47663418    3.80420086     -5.05141526    3.37743820   -6.94772823     -9.04882308    0.15759610  -14.69529269
    1   -0.43165087    7.36390853    4.70031615     -6.07771725   -6.49936114    8.63288268    -14.16678220  -13.72591533   14.12087788
    8   -8.79109314   -5.27161824   -1.92378564      2.19811295   39.09292016   35.95615749      1.33610301    0.59006860    0.84328087
    1   -8.99422909   -4.59371372   -1.17523391      8.37206355  -19.85129667  -33.85326168     -9.22833084   -8.66025520   -5.98286694
    1   -9.10220480   -6.05775897   -1.45478624     -9.43059208  -16.47182478   -2.87043019    -11.42212834   -4.35553417   -1.14785072
    8    2.57753619    5.84870210   -9.77271444     17.16893779    9.13401696  -37.00114309      1.61463452    1.29343786   -1.65629298
    1    3.34030021    5.35106537   -9.48024979     23.46777727   -3.51117677    1.43508978     -2.61766627   -3.26181681   -0.22827382
    1    2.01340724    5.61535032   -9.07598475    -38.74378229   -6.58757301   32.35451613    -15.51973906    9.96224859    9.33017422
    8   -1.66991564    8.65957979    9.73809397     10.27076285   16.52707182  -20.60669226      1.52240075    1.68564048    0.41073137
    1   -2.45882684    9.00292787   10.18573662    -11.35375653    1.19422751    0.16198510     -3.44760163  -14.17605041   -5.91792029
    1   -1.46542830    7.93118185   10.31838492      4.74267638  -18.78219695   10.36947095    -13.30906582   -2.21479670   -5.61894265
    8   -3.37732264   -1.69605019   -4.31639174     21.68533689   -3.86826720    2.97386176     -0.08575006    0.69574350   -0.18618758
    1   -2.39187651   -1.59352155   -4.30983773     -9.35248384   -7.67112490   17.14733306     -1.46496749    1.27716232    7.99639752
    1   -3.45873463   -1.18782419   -5.11647297    -17.19541086    8.57778754  -21.31609279     -1.82817665    7.02701442  -16.01270811
    8   -8.66659613    2.93104063   -8.39806500     13.99491137    5.08931937    2.50443983     -0.69393252    1.45301587   -1.67513469
    1   -7.73880591    3.16738972   -8.12368131     -8.64889253   -5.98038505  -11.44069748     14.45604854  -21.04478731    2.51579561
    1   -9.12038221    3.34738963   -7.64621425     -5.18279135    1.82415279    9.91505273    -19.13989912   -3.33035848   22.70455904
    8   -2.64099825    5.87059116    3.11827210    -19.47098615    5.91656713   22.72619863      0.40353178    1.25724358   -0.91018373
    1   -2.07192366    6.64245488    3.33750423      5.87914982   -2.04659807   -3.05738280     -8.36184867    5.78166023    8.39233500
    1   -2.16701362    5.41588724    2.42510253     10.55503154   -2.07816689  -16.44618544     -0.58076809   -5.94175374  -12.12670495
    8   -4.94995044    5.70959305   -6.92332515     -2.82138086  -28.25832613   -3.82480143      1.01234809   -0.51079707    2.13760376
    1   -4.12802437    6.15776348   -7.04889474     28.72933591   13.19994872  -13.06526706      5.88343629    5.17684931  -11.90441537
    1   -5.32355925    6.35427933   -6.34079023    -23.10178849   15.73614423   11.58115739    -28.59315253    0.91157943    5.11772772
    8   -0.88633167    8.97160751    7.07053405     -5.50474382    9.38351728   33.39253444      0.34463430    2.47954317    0.80633176
    1   -1.11196328    8.95650295    8.04725072     -0.06436478   -4.22494430  -19.01526465    -12.41486084  -31.61363527   -0.91532061
    1   -0.45380655    8.10574858    6.97129345     -0.72137282   -4.48808156   -7.69406516     -3.31920495  -17.43324027  -13.98932486
    8   -9.02753759    6.43668561    2.03521925     -3.11501261    6.76730585   -9.86385349      0.90455463    1.21054409   -1.16064093
    1   -8.23844113    6.18629838    1.51742104     -2.79738820    6.52220246   -0.91985902     -1.48557513   -4.96146352    2.65510749
    1   -9.04829197    5.72348006    2.68108865      3.90510505  -12.57432995    8.44571633      0.87766732    0.10298645   -7.49345720
    8   -3.95459124    9.25925304   -9.58738680     24.62279342  -40.90826250  -13.97348188      3.23443921    0.36349673   -1.27157648
    1   -4.46387773   10.02586431   -9.70609035    -28.51323075   37.93820586   -8.28637839    -27.88570289   -1.88432025   -3.86572808
    1   -3.72583291    9.37604204   -8.67960795      1.87099877    1.69496976   29.39087163    -12.49534624   -9.93885141    9.99330139
    8   -8.80999908    9.25671285    9.02681911     -7.66858010   63.47523548   38.46842301      0.88634461    0.02180802    1.72798829
    1   -9.48256993    9.35505527    8.34855951     -9.06920146   -5.22397068  -14.65647748     -8.95436121    2.40834017   -2.36239220
    1   -9.03953955   10.14404466    9.53931260     16.38231519  -55.41903683  -20.57543496      9.15689102   -8.54168440  -15.54098569
    8    0.59893699   -1.19466664    4.72268904    -13.45431081  -36.80675076    2.40374720      1.09061576   -0.92760011    1.81913875
    1    0.51102605   -0.36384909    4.32085757     -0.76037454   33.38405920  -19.98029336    -29.83164344    3.01943679  -30.07548372
    1    1.17687814   -0.96196275    5.44543562     16.35721480    2.60775487   16.73711611      6.41851251   -0.01462775   10.55256265
    8   -4.53137692   -9.14928407    6.58172594      7.71843783  -40.72411036    6.70249351     -0.65910161   -0.69775228    0.74584897
    1   -5.26956961   -9.68550248    7.04614630     24.44751593   15.42202859  -20.96647414     15.43274229   -5.10784649  -20.36152642
    1   -3.87957141   -9.89073055    6.31901876    -32.67592932   23.86296513   12.12467886    -18.51932191    6.15148756   -0.27587007
    8    0.35404185   -3.63158436   -8.83052431    -19.76263731   -2.44819607  -34.05854490      1.43756964    2.51931110    0.45758859
    1    0.46249748   -2.91679105   -8.22213261      6.53606217   29.52937634   17.32226964    -17.84501234    9.39817962   14.16713993
    1    0.69409315   -4.33257556   -8.32402167     12.75787486  -28.18007471   16.05791146     -1.42459893  -33.03775557   -6.81212329
    8    2.08770530   -4.79851352    5.66985887     36.85850897  -13.68721388  -23.91871640      1.47530584    3.05355644    0.31768620
    1    2.48145922   -4.80628627    6.54262125     16.65807927   -7.68313513   14.77008124     -0.16803200  -30.07772092   -1.83924759
    1    1.27765607   -4.46194452    5.91594852    -50.33533161   19.99880581   10.38988308    -14.64268049  -16.19602062   -4.13608089
    8    4.79346309    1.61591486    8.88446459    -54.49723809   36.79352029   28.46655259     -0.35514347    0.14819825    1.84151161
    1    5.32555239    1.14021188    8.36965543     36.30669952  -53.60704262  -58.94387912      1.18288955  -22.32279576  -16.75438251
    1    5.51480092    1.94434517    9.39304656     14.16473287   19.26136535   32.04228991     -1.95014519    0.34828950   -4.98534506
    8    8.96467958    1.44605657   -4.07385899      6.40629447   -6.59287083   22.74611954     -0.04614374    0.38448490    0.63903201
    1    8.50796660    1.51515879   -4.93160020     -3.22199734   -1.45294072   -9.50399577      1.11990802   -7.02334003    3.28325295
    1    8.31045209    0.91813873   -3.54739858      0.21754010    7.02318193  -13.33894819     -6.85025097   11.29628622  -16.97949117
    8   -9.70028460    7.65585635    5.84533333    -14.39330271   19.15324488   18.24773352      0.60080958    0.24296667   -0.38299829
    1  -10.10863584    8.33640479    6.46399012     13.86130910  -11.88749363  -18.25781369    -17.87604008    1.63441544  -10.47538790
    1   -9.29384228    7.06559959    6.51263954      1.56662351   -2.37823994   -0.84796289      5.56043328   -5.40319434    2.44702676
    8   -8.33904538   -2.67499584   -9.27594707     31.75583910   47.94189872    9.34588543     -0.96859137   -0.27316062    1.58130738
    1   -7.43073424   -2.60125274   -9.72895500    -31.92542653  -11.97840526    6.09917003      2.74925058  -21.15373089   -9.18184753
    1   -8.26070177   -1.80567569   -8.75351801     -7.01062593  -33.73353307  -15.53666885    -11.75188438   -2.25318419    6.79977017
    8   -7.69585768    4.77822877   -3.81997504     24.22788400   22.96288323   30.67280244      1.79582575   -0.44980656    2.62760667
    1   -8.26073789    5.36365751   -4.28015231    -26.10795849    7.13694152  -24.49371957    -17.72426150   -5.02978680  -17.46008132
    1   -7.16613076    5.52844206   -3.41523897      1.03563997  -28.51805419   -2.44527963    -14.13328456    8.43031009   -0.85769073
    8    6.17174203   -8.57412048   -4.23931981    -35.40587293  -15.47288198   21.97437564      1.88080694    0.83775162    0.77129997
    1    5.25487522   -8.34634680   -3.91237112     19.37983564   11.37933996  -11.36212227     -4.91671790   -3.32846498   -4.56789250
    1    6.21570832   -9.39857908   -3.69750991     15.97990871    4.95159617   -5.85496963     -5.99344040   -6.91802562  -16.34983752
    8    3.49113598   -2.28253211   -8.85969813     21.90030185  -16.41997289  -23.41120096     -0.27419947    1.72794923    0.80259696
    1    2.64632868   -1.98214607   -8.58633139    -32.37538394   14.23380425   10.69216231     -8.70001104   -5.38384175  -10.55969380
    1    3.98186898   -2.17043566   -8.04054463      9.70139050    3.31929379   11.62202311      1.36310287  -11.54216213   -3.33913945
    8   10.00611130   -4.22443166    6.11386499     14.51972924   12.26711530   19.16331042      0.94165054    0.64802308    1.33221295
    1    9.41422525   -4.79439773    6.63238640     -4.56672360   -9.16681100   -3.09459712    -11.00783855    7.08666846    3.10043506
    1   -9.85762398   -4.22196071    6.74779873    -10.83798107   -0.13488217  -16.04853952      7.76852188   -4.38512385    1.43018051
    8   -0.84726847   -0.79106099   -3.75514758      2.57733810   23.96389717   -0.74596626      0.05089017   -1.28276976   -0.53389110
    1   -0.71580829    0.17052828   -3.84049815      2.17833427    1.45478303  -19.21486236      3.59455623    9.86602311   -5.04031343
    1   -1.03992781   -0.70814546   -2.81571745     -6.60475521  -19.93077739   16.90037014    -21.71981448    1.29572530    9.11193551
    8    0.13537386   -6.31390404   -2.07329477    -28.65818076   30.66293516   45.74237895      1.51023474   -0.64788111    1.18251576
    1   -0.53270533   -6.44384985   -2.78685644     -0.03153655    5.37140776    5.07756917     -0.85027698    2.08989388   -0.15651353
    1   -0.40092656   -5.76940640   -1.34646505     25.95913429  -33.81659755  -49.25949670      3.46986513    3.14064152  -25.38085682
    8    2.87948302    8.24041284   -0.37876239    -35.64537904  -44.75618886    0.13869268     -0.34386405    0.42641889    1.51239044
    1    1.93661093    7.88604932   -0.18074273     34.86379238   21.11534425   -4.70067639     16.39560040   -5.92145715   -8.39681288
    1    3.32428143    7.36470074   -0.59187058     -2.99630815   24.45641167    8.72728031    -19.79546608   13.05356339   -9.83407413
    8    0.62494169    4.99002610   -1.73736948      9.18905080    7.76859257    8.10227886      0.25802898    1.06336297    1.32132965
    1   -0.11396899    5.61788112   -1.65206189     -5.42009138   -2.56246629   -5.06179036    -10.51511238   -0.25181403   -5.11763873
    1    1.28437838    5.53772092   -2.22032548     -4.70246589   -7.14258056   -3.68692704    -11.16646004  -11.51603513   -7.09167001
    8   -0.32170239   -7.83369744    5.20054306      2.64925642   23.79849963   51.51956689     -0.80645035    0.97581474    0.40424845
    1   -0.95008231   -7.91785892    4.49577508    -18.68154128   -3.09190483  -19.43197986      2.25060002    8.88050178   -1.09789426
    1   -0.81478860   -7.26621199    5.88739896     11.12773525  -19.25275630  -25.46366276      2.68634702   -4.80827778  -12.82192655
    8    6.15080436   -7.50995432    3.13985981    -32.69566100  -31.86151449   22.04371950      0.54187984    1.01231787    0.80141433
    1    5.36105297   -7.96718461    3.60310726     34.82184429   19.83774841   -4.63404987     14.04775856   -4.93227348  -31.84515838
    1    5.96100486   -7.83644013    2.25161600      5.81128561    7.35618963  -13.32484446    -11.39489386   -1.38507470   24.75340167
    8    8.65462386    1.33494639    8.59796054     16.07547750  -42.19586753  -22.42458972      1.11222452    0.99743394    0.65023330
    1    8.07025657    1.61549066    9.25657906    -30.75861868   13.55003660   36.89585981    -12.69886723   -0.69107536    5.79342929
    1    8.99251877    2.17234455    8.34317327     17.94290275   32.79514415  -12.26015274      0.50042900    1.10876859  -12.89168109
    8    3.87078418    3.70860177   -4.20378904    -14.65350740   24.89449016  -13.97887283      0.71211182    0.64249484   -0.54858368
    1    4.73850263    3.87105201   -4.60548882      7.52634845   -2.14973615   -8.72714836    -10.50302704   -9.33021118  -13.88845146
    1    4.16673169    3.14754136   -3.50660797      6.20001997  -26.75211528   25.10274419      7.67399574  -14.81908588   -2.41684833
    8    6.16512380   -8.24904408   -8.92359909     16.74955571   -5.57601357   21.27978268     -0.92845394   -0.29460713   -1.74105632
    1    6.36475744   -8.77546706   -8.09800050     -1.91588903    8.74058480  -13.06819083     -0.22496061   -4.70011547  -11.63044513
    1    5.34077249   -8.67363959   -9.18939949    -11.23894245   -4.98082899   -4.95241123      0.33529935    2.83429705    6.33983023
    8   -4.62172547    0.62406895    9.28054962     17.86091408  -17.56677387  -29.59826146      0.55261792   -0.91214995    0.16391821
    1   -4.44093176   -0.36298458    9.23740527     -2.31611272   22.75136842    7.61460771     -1.20630032    5.84540962   -3.09286444
    1   -4.06102249    0.90862005    8.49356860    -19.25447286   -3.93928621   19.40516583    -11.20765769   -6.13307508    4.11099968
    8    4.96781507   -2.15594794   -6.48386008    -10.90192561   45.49675048   19.19722406      1.31310746    1.90419274    1.62062112
    1    4.95548329   -2.12435190   -5.48928688      5.93093930   10.96426091  -11.84954766     -7.59854247   -0.07143143    0.45801049
    1    4.96324795   -3.08215346   -6.51952837      4.73526074  -50.70822308  -11.76264148    -18.30827044  -18.25150022  -26.02736551
    8    6.06586194    8.97625977    2.44728961     19.78214631   14.03741162  -52.49509084      2.54270232    0.46849144   -0.88490463
    1    5.55815983    8.58851316    3.10387038    -38.19325160  -20.97995701   40.43322878    -27.67058555   -1.55562331   11.85402547
    1    6.79707762    9.26750300    2.98608615     17.38410225   12.90748844   13.53934572      2.41792291    7.38982289   -7.13996000
    8    0.22338606   -8.86371798   -6.96360391     -3.40571095   46.85467047   19.28615337      0.73821196    1.05146295    2.16621440
    1    1.18850944   -8.79774613   -6.89974363      7.85078099   -1.43555339    4.89219249     -5.97621272    1.03409597   -9.38983840
    1    0.15437899   -9.64581331   -7.45248283     -3.61158120  -39.90586892  -25.18886552    -12.34038814   -9.67138457  -22.21067665
    8   -0.84466785    4.57357222   -4.69868361     -6.23183444   36.31559111    5.45445784      0.73033124    0.40562272   -0.88640998
    1   -1.25307693    5.49494562   -4.60746314     20.22834025  -22.90771772    4.20594476     -7.18595020  -21.09771319   -0.91949465
    1   -1.58689262    4.18093866   -5.15409156    -17.04136294  -10.25565251  -10.14979945     -3.86840320   13.22416803   13.88849306
    8    5.03298381    2.57099166   -7.73549765     45.93406937   32.50570724   -1.74600540      0.01121382   -0.16487953    1.88888170
    1    5.43771872    1.68984289   -7.81468561     -7.26602866  -11.07543529    1.20283690    -10.66801770   15.17497445   -8.36331990
    1    4.11102588    2.44878691   -7.69885566    -39.04547996  -21.46331221   -1.63983599      1.44633261   -1.23370144   -4.63181473
    8    2.72950442    5.99500822   -3.32999415    -12.62231166   22.62869307   18.37293606      3.66827461   -0.58412379    1.52012411
    1    3.01958241    5.15579551   -3.69195418      9.39215568  -12.36492006  -11.92957136    -24.22703657    5.03276705  -29.53055636
    1    2.86228657    6.63224180   -4.07657946      2.88803023   -8.22470437    2.32238700     -1.02605684   -4.39941886   11.37342075
    8   -3.17020921   -3.05174414   -7.47431619     37.01142723   36.93265475   14.17367977      0.80698028    0.11873302    0.16417288
    1   -4.02089995   -3.41698053   -7.58644247    -38.88641265  -10.31880495   -6.37603001    -15.45148772   -1.07302655   -3.70827271
    1   -3.36540337   -2.08805807   -7.24415015      3.23763933  -21.31023997   -6.74175126     -4.31058379   -7.53895129    1.47451321
    8   10.07753623    0.90128575    5.13908475    -22.63578074  -30.62539823   10.82965252      0.27395918    0.16418675    0.31652532
    1    9.06095876    0.98805622    5.16901898     31.69594185   -4.23029505   -5.79715969     20.66608118  -13.64771247   -4.54925779
    1   10.16671378   -0.11510999    5.25088026     -6.58596644   37.52683631   -8.94565835    -28.52427207   21.46136108   -6.97016794
    8    7.12336512    8.82549882   -8.42334236     10.09955685   -4.42048282   -1.10831399      1.34022891   -1.73806334   -0.91072425
    1    7.01353435    9.55054279   -7.77615627     -0.59463986    4.36959124   -0.16031126    -20.83209377   20.87226824    2.89033052
    1    7.86715429    8.33094347   -7.99149324    -12.95468194    1.36633384   -0.22984452     17.64907426  -11.11387720   -3.98643414
    8   -2.97664834   -3.55116847    3.01592947      3.76569936  -23.32767175   -8.76781116      0.57320970    0.51723827    0.04010064
    1   -3.33308937   -2.75401493    3.38480256     -9.98160919   24.12967248   12.20841788    -26.58339528    5.48507730    4.25608331
    1   -2.15985987   -3.62662203    3.54509787      5.41417900    2.33720851   -3.33682576     15.08663840  -16.09749839    0.82871644
    8   -7.49372337  -10.31822434   -8.65707537      9.64516365  -12.26968714   17.29023163      1.09465088   -0.85123084   -0.45979753
    1   -8.18505935   -9.85045664   -9.12012209    -21.33994150    7.99702516  -13.20156725     -2.62386128    3.92249477  -20.45478569
    1   -6.72986311   -9.76421050   -8.90690910      8.06936141   -3.83406580   -3.13625879      3.36209376    5.22462391    0.02722625
    8    8.76855990    3.67735843    1.51024150     -8.11482086   -3.10761946   28.49460436      0.34757641    0.17725529   -0.00109674
    1    8.35900102    4.06511400    2.32808739      7.33373137    3.42373088  -14.89265282     -5.93049082    8.39075673    2.04996659
    1    9.17288142    2.88177314    1.92913881      4.84343805    7.97387165  -12.13707057      4.76878951    2.65070533    6.97994231
    8   -8.31021662   -4.11546119    7.45969392     18.20157868   19.65768138  -13.93261366      0.93949504   -0.00310018    2.37617841