 BEGIN_INFO
   #
   # This is a XCRYSDEN-Structure-File
   #
   # aimed for Visualization of geometry
   #
   # Launch as: xcrysden --xsf .HICOLM.XSF
   #
   #
 END_INFO
 # estrutura final
CRYSTAL
PRIMVEC
      20.50615985       0.00000000       0.00000000
       0.00000000      20.50615985       0.00000000
       0.00000000       0.00000000      20.50615985
PRIMCOORD
  927    1
    8    4.46315805    3.25428598    2.08507875    -12.44021500  -39.17743362  -39.36657948      5.23937398    4.42444477    4.60536629
    1    4.98088209    3.08999179    2.86910844     11.00766583   11.91986893   26.54639839     19.82493889   -0.09709934   27.91464472
    1    4.28978394    4.19539624    2.09768799      0.95430554   25.50577450   13.49519509     -1.29271355   26.26879073    1.49952153
    8    9.20807082    7.44087574    0.79837481     12.65524173   18.60736784   -9.74023784      5.13042762    5.00116626    4.80656371
    1    8.49819129    6.98671989    1.24052877    -16.34378771  -12.58051071    6.11023679     12.35558847    9.57730765    6.72978837
    1   10.00028561    7.09838762    1.24652520      5.70691262   -7.28892538    0.76667834     16.53488692    3.62038014   11.36489806
    8    9.70568011   10.05188519    6.92585166     -9.92023035  149.88812836  -15.78735875      4.96078852   10.02423686    4.47366138
    1    9.93305943   -9.64189850    6.21298541    -34.19248525  -98.67500960   77.14362204     -1.95031733  -34.65968397   34.07661200
    1    9.12293963   -9.93956501    7.65030897     40.78470066  -44.90527728  -66.12902485     17.10977194  -10.51771719  -15.48220867
    8   -1.13967171    6.65955444   -9.08883701     39.18805410   -7.29862949   20.98042739      5.92775107    5.34835158    6.44830665
    1   -1.70561229    6.98536277   -8.34819976      8.98263822  -11.09039436   -3.65444377     -0.37016595    3.17245054    4.39243264
    1   -0.28491414    6.32851200   -8.61928554    -49.20938159   12.34261221  -16.96295918      2.07173405    2.78448701   -4.34425058
    8   -8.97818322   -8.78602008   10.16502004     45.64344237  -98.54999669    6.96307610      5.89197850    3.21339265    5.19681050
    1   -8.47732128   -8.19894730    9.66033861     24.94865950   42.84847026  -34.71238739     18.42771424   25.24297433   -4.04166409
    1   -9.67323862   -8.30853195  -10.06076063    -74.53716001   55.29657919   25.17119849    -19.21451635   22.72469898   21.71636972
    8    4.83134611   -1.40157751    7.13838246    117.62655184   61.47132086   12.33135982      8.14387532    6.10833387    5.38392642
    1    5.53208222   -0.58193902    7.36689952    -77.27821945  -97.77399386  -35.43654520    -11.44749926  -14.63211958   -3.14998245
    1    5.45233346   -2.12271300    6.73278854    -36.81232039   42.70300481   21.22583292     -6.94315081   31.16172822   18.86750062
    8    3.24545921    9.93341608    7.17214736     51.26116690   -3.90060806   46.98810261      5.18370753    5.53926338    6.21227006
    1    2.48679000   10.23419181    6.73280540    -47.34682211   16.29892080  -26.83164356      1.51936605   10.30264951    5.82455748
    1    3.26297799   -9.98187604    7.97311873     -6.71423457  -11.39362668  -14.74073923      9.13702900    8.16029928   14.12097566
    8    3.63568202    7.57071592   -5.46700880    -11.02151421    6.29582792   13.08776774      5.35922066    5.84932405    4.86525965
    1    3.81345974    8.44567817   -5.03518757      4.79239977   -8.85639506  -13.44757504     10.22065888   15.51422428   19.54252474
    1    4.31829285    7.48826467   -6.16012812      3.39691228    7.68054025   -1.40247959      7.81915358    7.60331894    9.71975648
    8   -2.53036540   -6.15554886    9.37630765     52.03052085   16.05046455   38.51327237      7.33086830    6.13193586    6.65301828
    1   -2.55163666   -5.21824947    9.80666267     11.85045446  -55.01701612  -15.39926408     -1.02917568    4.72481229    5.40790117
    1   -1.67600251   -6.61512856    9.78135982    -59.26776363   41.56018458  -22.20885063     -7.50355657    8.34498585   -2.99280144
    8   -2.13685903    1.70207357   -6.97806926     24.79388580  -37.39535007    1.78945617      5.01388837    3.89614770    4.82036688
    1   -2.23162729    2.37305811   -6.31870673     -8.99564430   24.84789415   21.76988155     10.90092637   24.50030550   26.15194582
    1   -2.56765291    2.08293520   -7.73542611    -15.96789532    9.01115055  -21.84109726     10.73479720    2.95704037    6.89007802
    8    1.52678532    5.25412695    4.27329627     15.86806944  -11.82868396   54.27872913      5.15832533    3.63060117    6.65451526
    1    1.70120718    5.91352387    3.65177572     16.86876968   49.85912152  -32.77901069     12.49906907   25.90769551   -6.22087704
    1    1.03127368    4.69503506    3.73287397    -32.41396618  -40.92606020  -21.10041203      5.79010012   15.21615751    5.72315273
    8    7.34110806   -5.97140804   -4.92628325     18.97407284   -0.14341362    2.41187820      5.67302392    4.41752524    5.93860397
    1    8.19392728   -5.94489318   -5.40874432     -9.40133341    3.16466174   -1.84362355      5.72792053    9.88893053    9.35609235
    1    7.28205036   -6.90991801   -4.68807691     -8.41369079   -3.55838045   -1.07876965     10.53913118   18.18410381    0.67318447
    8   -8.82567141    8.70732428    3.13763767     -1.50305115  -13.30864256   31.87229072      5.96791786    4.60199871    5.40773827
    1   -8.83120932    7.83034022    2.71373346     -1.63545458    5.35312085   -9.42370434      3.52602741   21.67919072   20.36385144
    1   -9.05205154    8.44346859    4.07777573     -0.11338092   11.09046829  -19.45425303      5.13167683    7.05768833    1.69600157
    8   -2.06242913   -8.37170184    3.09905285    -36.36536972   40.72434502  -15.72419495      4.81892828    5.17262717    4.80496650
    1   -2.72545212   -8.91009149    2.60604021     14.42292301   -2.83236483    6.90579799     20.26044914   30.97837886   18.45137085
    1   -2.48446276   -7.44878477    3.00430780     22.16637361  -36.64115084    5.19667312      6.20327668   -8.67911177    0.63207450
    8   -1.39850895    4.27972894    6.66978638      6.65168507   28.09122689   37.29071821      5.41535500    5.12927132    5.49828461
    1   -1.17287069    4.82946022    7.51286412     -2.28965507  -36.81654107  -44.71590442      2.87688717    9.54970879    6.10748692
    1   -0.58053719    3.76296137    6.47999475     -5.10127025    7.96963686    8.83615775      4.49610108   10.95830463    5.01221734
    8    2.78637215    1.12385633    1.73946088    -17.46511347  -23.50877435   75.10416203      5.18584438    4.43073379    6.16167041
    1    3.37147458    1.84844992    1.90351324     21.74064995   29.02417895   -2.09679227     26.49103524   29.74987419   12.33088311
    1    2.77569165    1.04764861    0.83308133     -0.74983956   -4.43171089  -71.63796460      5.78398234    1.43747042   -4.06048162
    8    2.13525388    1.90294146   -7.69950904     -3.26615689   11.93729689   25.84521226      5.16546298    4.69776964    5.93196830
    1    1.54129477    1.22886870   -7.28869489      5.67891190    9.92239256   -9.22017826     17.90237671   22.16127059   -0.83679958
    1    1.98236567    2.69048970   -7.10285969     -2.33011447  -21.79513680  -17.27708309      7.12884818   10.83342104    4.95662833
    8    6.10121456    0.29087649   -7.66485227     45.00927474  -69.73153466   -3.16074913      6.30547814    3.46693852    5.20803205
    1    6.82007555   -0.28329625   -8.15482649    -49.67556285   40.03983161   21.28471602    -18.06241929   22.53095177   19.76240418
    1    5.72718662   -0.42227389   -7.05827749      2.65454433   28.52558291  -21.94301122     15.26460191   22.76027201   -6.60261385
    8   -0.23729165   -7.10509916  -10.01120914     62.83628316  -33.16861558   13.78134353      6.38941426    3.87583871    5.42506780
    1    0.61256654   -6.65848736   -9.63125485    -43.70594277  -32.55822198  -24.75985777      3.41251194    7.48503617    3.68204613
    1    0.05200516   -8.09519183  -10.17351070    -18.30026837   65.94748881    9.54927161      1.09877945   42.45335253   15.49749588
    8   -3.84948402   -0.25038759   -2.17284309     60.59826973  -19.25507430   22.48477399      6.36453150    4.18845912    4.62774191
    1   -3.74082230   -0.91563440   -2.89728429     -8.18094748   11.15413288    9.96019756      4.08010190   22.51726242   26.42386328
    1   -2.97057194   -0.39860218   -1.64838032    -52.29797486    7.33250078  -29.71711344     -2.45785008   14.53384780    5.50345794
    8    7.24012873   -9.49025311   -6.67735623    -49.92311686  -45.45217500  -52.14488929      4.73449750    5.50277902    4.90721446
    1    6.80334299   -9.23448152   -5.87907548     -3.52855015   16.36057838   34.01197471    -11.48117241    6.21616404   21.96396467
    1    8.09491267   -9.13881262   -6.62144466     53.21189576   29.17018231   19.50148304     51.22553940   12.62818809    4.35493253
    8    1.32731602    3.73946904   -5.81559659     42.61007031    1.59368480   16.81710107      5.99347388    5.50650663    6.67841341
    1    0.68163132    4.18997537   -5.22851690      8.13225195   -5.70810162    3.15885290      1.19706393   11.23930533    2.91971764
    1    2.18389648    3.65301732   -5.25526113    -48.00409940    4.98174972  -17.55085088      7.58235589    7.91130133    2.28695134
    8    6.36361398   -0.38935881    2.85019094    -22.49851758   95.46442787 -165.63249767      4.63789459    6.85706578    1.84245242
    1    6.81794279    0.27426568    2.05728472    -51.51440191  -97.08344566  111.80393515    -13.33286306  -28.57334378   45.07433765
    1    5.42678157   -0.59800570    2.38815631     82.95452089    6.15845693   51.47219579     58.07688276   19.47621987   27.42619327
    8   -5.08269934    2.31899845    5.42131330    -13.84571643   -0.02901051   -2.27989329      5.90879921    4.95920849    5.01489984
    1   -4.80571811    2.17903433    6.34932605      9.80115514    1.18370153   -8.25581849      0.93222154    5.04550413   20.45617299
    1   -4.28289210    2.67388003    4.98034107      5.92591294   -4.08239479    9.05416423      8.97053939   14.54109321   -1.07225992
    8    2.41148873   -5.52095733   -2.86654680    -53.64560013    3.31836926   -6.47831301      4.78745833    5.44316032    5.31394427
    1    2.03851601   -5.16860670   -3.72097076     20.88524634   -9.32297857   12.89477941     11.88349023   -5.31572088   24.57621465
    1    1.55243420   -5.81935274   -2.43185912     36.19792327    1.10690073   -7.07266245     29.65394513   11.42744221   -7.86379204
    8   -3.68377259    2.40673140   -9.06556567     21.63972207   46.48049651   -2.35349548      5.38157518    5.81098561    5.05733002
    1   -3.87659562    1.69791068   -9.64779052    -13.47112994  -34.57185746  -15.79029428      9.27775200   15.20565489    8.85871722
    1   -3.31901604    3.07467807   -9.70759819     -9.30809028   -8.24009044   16.14386939      1.19063643    3.51790016    8.27376157
    8   -1.12279112    7.76475384    3.70986096    -11.15920934    2.09054506  -14.82332170      5.33334048    5.34551040    5.20015397
    1   -0.83023797    8.64138017    3.35490468      4.47065058  -14.88633564   17.14592449      8.22099084   11.06722239    2.77981640
    1   -0.66084594    7.62476453    4.54971257      8.98579067   13.24209075    0.01949425     15.18935717    2.25697602   24.09090657
    8   -8.93184017   -5.59415565   -2.07318973     -8.16590343  -12.67293131   26.16837607      4.86007054    4.36210574    6.70562175
    1   -8.97130857   -4.82492368   -1.44507837     -8.32240174  -10.68615380   -4.62532910      2.21962196   16.54040440   14.24372035
    1   -9.51808082   -6.27922492   -1.60342179     16.09592033   24.38866947  -19.85379987     19.32888320   19.85828300   -9.81678663
    8    2.57212260    6.11965423   -9.77582855    103.96115527  -54.76738584  203.71405866      7.73373564    4.12088184   10.69814448
    1    3.65892451    5.83363633   -9.44086969   -188.69090684   36.51306677  -62.39202103    -53.35446418   15.59782815  -18.67818500
    1    1.97652302    5.98435646   -8.81698196     83.16124922   11.29785412 -146.88745664     36.75072052   10.75194877  -49.17617915
    8   -1.51044506    8.72610795    9.68139603     26.51307152    3.62197418    4.34536318      5.92946358    5.76525682    5.25688320
    1   -2.36376545    8.93398026   10.06058395    -21.82731024    0.72466521    2.40842355      6.22239976    3.95217468    6.59766007
    1   -1.15386108    8.10447558  -10.15891947     -2.55049701   -3.64984640   -6.95409756      9.17941091    7.36299892    2.71690927
    8   -3.32184008   -2.06026049   -4.17558360     38.10222847   14.13871904    9.86986635      5.55658714    5.49269350    5.03819769
    1   -2.35142730   -1.96352654   -3.87527253    -39.79961939   -4.05840311  -19.70879220      3.98695873    2.06189070   15.42273028
    1   -3.35802489   -1.50251415   -4.99919505      2.40026741  -13.49764669   13.07955932      2.82529876   -2.10318137   19.11624823
    8   -8.43451691    2.85313608   -7.68332820    -53.95391103  -24.88959310  -13.66953155      3.68852718    5.37517897    5.64041666
    1   -7.50981401    3.01171620   -7.77049826     36.89396834   17.81980982    9.92481547     36.54660825    8.77966958    0.24760581
    1   -8.74210183    3.38995158   -6.93294852     14.19050758    9.81576945    6.77225731     -0.87853256   17.65024909   18.99069144
    8   -2.80417064    5.74293508    3.22230910    -51.02731286   -7.94863151   50.18449899      3.72521573    4.55806534    5.84970111
    1   -2.23824842    6.46768349    3.47305777     24.70158409   24.12716928   -0.71288560     23.39476231   30.65376237   18.39852081
    1   -2.43941785    5.41814200    2.43815307     25.89791395  -14.34167667  -47.95525597     10.95397768    6.49338829   -1.35373001
    8   -4.49005545    5.35884467   -6.27942348      1.61781425 -106.79802405  -14.02011166      5.37909264    3.58539461    5.09855810
    1   -3.79560331    5.88059767   -6.56901156     40.99201601   47.90468450  -19.59408677     34.84388501   23.46859734   -6.60042183
    1   -5.04786185    5.92626005   -5.85320978    -43.83710148   60.15512988   31.67472574    -17.45142393   26.09323856   22.87033373
    8   -0.95540364    9.05611868    7.05704232    -34.30035575   80.27341529  -43.87637367      4.64649152    6.96778652    4.75328508
    1   -1.04954290    8.98440327    7.96692674     -7.32247766  -12.72411030   64.96554802      5.00390884    5.53980946   37.68334143
    1   -0.46442447    8.33183829    6.82258686     38.70326855  -65.27195112  -17.67636696     17.18274709   -6.88197192    2.28568013
    8   -9.07317580    6.26276327    1.86874857    -10.45144588   14.48920252    4.97795434      5.40664766    5.12024755    5.49528455
    1   -8.20156150    6.38370387    1.46455487      7.90610465   -5.70546410   -7.53351902     11.14228159    8.36174333    0.94463909
    1   -8.91868057    5.55164515    2.50732060      2.00835071  -11.21746052    1.16267662      4.64101366    7.04382858    8.43448393
    8   -3.95806677    8.86961071   -9.63272834     15.19392426  -11.88594000   16.12750498      5.23348509    5.90830707    6.18698304
    1   -4.29566232    9.74876822   -9.86827641     -7.52899159    5.75447505    5.75149293      1.39911556    9.26440191    0.74219334
    1   -3.86130354    8.91017614   -8.64837352    -11.10848697    6.83465768  -18.67147173      7.41577428    2.56693450   12.16509905
    8   -8.88170110    9.46395030    8.71532383    -41.36822591   31.03965142  -26.44733861      3.56837827    5.88277026    4.12742612
    1   -9.64982165    9.72071683    8.06832367     46.26723586  -20.85564598   38.55468173     36.39580536  -11.05935022   28.78342725
    1   -8.88431566   10.21998035    9.36054160     -5.48498615  -11.65723871  -10.26138233      9.75469203   11.82099433   19.81983060
    8    0.79803033   -0.85963548    4.53116878     12.19701238  -11.76874952   17.70722063      6.37368072    5.50339738    5.56581475
    1    0.76852091    0.02994502    4.12881740      8.67818003   -0.12644249   11.51473724      2.58594913   11.48347829    6.77007569
    1    1.41831267   -0.78213008    5.32038902    -17.20138947   12.83563211  -28.27800653      8.94181910    5.85217218   17.58580443
    8   -4.47764210   -9.14635763    6.46331382      5.59783742    5.20229062    1.99019575      5.77021636    4.86867893    5.09302070
    1   -5.23499592   -9.59423873    6.85161755    -21.16362586    3.17866736    3.28267610     10.61065848   13.04637375    3.44067419
    1   -3.91444051   -9.90762457    6.34596391     18.50367204   -8.90077233  -10.35601732     11.08686928   10.77280404    6.37166758
    8    0.52402908   -3.88717847   -8.96329724     28.46895820   12.70886460   25.68038948      6.57983794    5.02555530    5.90893907
    1    0.78237117   -3.13028757   -8.32019192     -5.60240930  -42.49881854  -23.29841738      5.18429821   12.47111741    6.98192878
    1    1.12046893   -4.66212210   -8.72450173    -19.10472359   31.90331037   -1.27910042     -0.61434261   18.45208886    5.50444470
    8    2.03041974   -4.74353998    5.61647687      4.20641133    7.85197735    5.54270884      4.85941289    6.28671943    6.13865949
    1    2.66369997   -4.75594213    6.37521673    -17.50414964    1.13999972   -4.35139955     21.00951139    0.99702202   10.13890782
    1    1.23050871   -4.28601256    5.97473568     13.83269628  -10.30955683    0.43816412      8.60534100    2.78797463   -1.49911039
    8    4.96055747    1.78052574    9.14286916    -20.37602237    6.38992542    5.56275805      4.74955224    4.44475150    4.48346463
    1    5.56111607    1.31569969    8.53916769     11.06868181    0.59851499    0.73766622      9.48135576   15.40227347   10.16159847
    1    5.54633620    2.21613343    9.79177264      6.43711132   -6.72093015   -7.27994216     11.70890030   22.55834055   20.05650308
    8    8.87238770    1.53740884   -4.05863023    -54.73468505    8.16110740  -47.58213242      5.18457905    5.40669810    4.53138155
    1    8.41214614    1.73864489   -4.96647479     39.41946805   -9.25720490   44.62916062     25.17937738   -2.22849544   39.21419089
    1    8.08306196    1.16551835   -3.58317134     20.56700093    1.44172543    2.53933102     19.27402209   13.69724550   -2.41440195
    8   -9.75195907    8.01032775    5.53890193    -28.62392205   44.91670603  -42.45856708      4.47862248    5.30007693    5.53781122
    1   -9.98478077    8.83295875    6.05345085      4.11335064  -22.02489199    0.61241343      6.45702710   16.08550246    6.31212424
    1   -9.26197542    7.48220147    6.11960184     24.11771517  -24.57068454   44.03331367     23.65488587   -8.67847726   23.38961712
    8   -8.40599406   -2.60513961   -8.79695603     15.39123992   13.51647165    8.92307956      5.33553747    5.13936955    5.25171494
    1   -7.65105496   -2.27530148   -9.39492747    -22.15685322   -7.52652233   32.41508119      3.49214137    1.97479456    9.71938091
    1   -8.20228540   -2.21821216   -7.88424729      5.90545316   -7.74566950  -40.95458202      6.70182584   10.21206227   11.92163045
    8   -7.69577303    4.08946208   -3.50850627     12.28890022   50.47230888   -3.08897864      5.03655940    6.00988976    4.30222574
    1   -8.20480112    4.39400754   -4.32199704     18.43758136  -11.98971080   27.50893420     24.41721845    0.93925713   27.14582564
    1   -7.21225204    4.93595372   -3.19012509    -27.11775108  -40.19548917  -21.16808740      9.07018564    2.78089353    9.93205255
    8    6.28050207   -8.49786982   -4.34126023      4.60631183   21.83859569  -16.59107504      5.14831265    5.64556089    5.75493101
    1    5.65789412   -7.92958848   -3.85478579     -8.31651071   -2.44137065    0.90700114      1.62114148    9.12285724    4.55904669
    1    6.47411694   -9.17438372   -3.70633091      1.90350267  -20.11623843   16.11400753     15.23637120    1.58485198    9.42937688
    8    3.63841935   -2.30631369   -8.71738109     16.69200971   16.78832074   22.01986574      4.83308475    5.99409667    6.13228424
    1    2.76761143   -2.00504922   -8.35113619     18.09309932   -6.60756868    0.13670003     16.60766172    3.56113377    2.29434570
    1    4.29845782   -2.08202584   -7.98027674    -33.92374097   -9.40932559  -20.18788641     14.21445169    4.76152125    8.39446332
    8  -10.15216896   -3.85354602    6.05365665    -13.60281149   39.97474209  -62.29600434      3.92957420    5.63730689    4.49779285
    1    9.83985465   -4.44854218    6.54732008    -24.13107299  -36.79710388   31.17598332      5.36434785   -0.41047335   12.79401305
    1   -9.36618570   -3.75812030    6.55031370     36.64530782   -3.90461269   29.98374477     37.30986317   11.44489632   20.50260201
    8   -0.77723841   -1.35790085   -3.46511996     12.30468257   49.02269336   61.94480381      5.20795833    7.07042437    6.62752874
    1   -0.56640813   -0.35969749   -3.65861631    -19.89571311  -58.73602140   19.22393380      6.17039189   -5.40971636    3.27309320
    1   -0.87423982   -1.40633289   -2.41347453      3.47773035   12.76136708  -82.32379300     12.04024388    1.62795083  -13.33370511
    8    0.19395250   -6.63343055   -1.79746379     -4.86294753   27.40984169   36.06772206      4.09963353    6.45938594    5.26744118
    1   -0.43030068   -6.46073054   -2.50747631    -10.30786415   -5.36868848  -17.50622773     12.61876215    4.00805585   16.54627777
    1   -0.22005553   -6.09861874   -1.05498557     10.40831252  -19.54244545  -17.68840389      8.71245483    3.85174880    7.11336321
    8    2.90632764    8.02356205   -0.46566265     59.43305913   73.04801956  -30.74627332      7.12990065    6.77501570    5.03088245
    1    2.09980913    7.86631698   -0.13575127    -93.96639981   -7.84377893   33.47089849    -17.04933143    4.76346930   13.93291470
    1    3.26550162    7.19765707   -0.40293057     36.90451835  -66.64464447   -0.33968439     13.45338302   -8.22773406   12.82393916
    8    0.62951676    5.85675912   -2.05565485      2.44340280   18.87976577   74.76212189      3.78769574    5.67664759    6.82565409
    1    0.12253680    5.56066326   -2.73127618    -53.99271992  -30.80556377  -55.75659140     14.36473996    1.24933961   -5.88938380
    1    1.41600048    6.04394743   -2.50354372     51.22938695   11.80694940  -20.91620428     26.55768138    7.57826237   -5.70850568
    8   -0.36625908   -7.71736071    5.14477598     12.12834549   16.54886159   26.50390846      5.28358977    5.23219880    5.43539509
    1   -1.06616846   -7.87623321    4.52130408    -16.12077022  -10.96407010  -21.41055734     14.16862166    9.77199955   17.09574860
    1   -0.79061563   -7.07953184    5.75981134      3.41421584   -3.91641761   -0.33416204      3.54453219   10.89372534   13.50771044
    8    6.69539958   -7.84858987    3.01846886     53.41883257    0.76466526   28.91976506      6.45112796    5.45666866    4.77874461
    1    5.92593637   -7.70477069    3.52802521    -35.56688222    2.79905048   36.65469922     -4.65847077    2.21440844   15.13098375
    1    6.32823808   -7.85131528    2.18441658    -16.83700872   -4.81929947  -69.19837826      3.10134480    8.51997447    2.55657183
    8    8.85417092    1.64310962    8.54127071     13.24530871 -203.38151172  -79.36891152      5.47750790    0.36780653    4.41530193
    1    8.38074318    1.89069768    9.18553385    -80.72770480   61.83385730  115.21370617    -29.42883155   18.68106739   55.89743848
    1    9.25860405    2.32947129    8.27840178     64.41600906  133.70925588  -38.08681351     40.28814764   55.23775466  -20.01304329
    8    3.57887666    3.43532844   -4.31880048    -10.41062673   20.38474059  -21.36389352      6.23379646    5.60836247    4.47334217
    1    4.40806268    3.65523434   -4.79819730      0.53420767   -9.15094591    3.54225527     10.98022709    7.83939379    3.91233106
    1    3.87963430    2.95912611   -3.54186390     11.65616008  -13.87845383   11.84267307      3.62324049    3.47917037   20.57617396
    8    6.61810454   -8.01038276   -8.84233276     45.24993798   41.54765788  -16.52493852      5.45111587    6.10092366    4.46812977
    1    6.80981756   -8.44844697   -8.04104282     15.64080411  -20.88209387   39.32877981     11.23482433   -3.10385849   24.36739717
    1    5.79353246   -8.35170415   -9.02324364    -61.92455543  -21.89191039  -23.03128873      3.77565559    6.17307537    8.03480722
    8   -4.57853450    0.49511681    9.66025731    -46.85534067   42.61257643   29.20947811      4.47192366    6.84859078    6.25165519
    1   -4.03406347   -0.25196311    9.65471042     33.70595593  -54.85697318   -3.87941522     11.93097385   -9.58476926    4.53806566
    1   -4.19784899    1.02318073    8.96770291      9.51393534   13.04912814  -26.93248087     10.39938372    9.22531221   -1.60890678
    8    5.09263139   -1.95994146   -6.45567284     18.88889738    4.20127744   36.69348819      6.20419223    4.41722535    5.99702567
    1    5.21336039   -1.68330573   -5.48551314     -9.30401524  -18.20134139  -36.01017762      0.88541274   13.51395467    5.04296236
    1    5.39866607   -2.90663269   -6.43425723    -11.46315644   13.95097369   -0.77506212     -4.08281274   20.26281144    1.33294451
    8    5.78437079    8.95048554    2.37756491      4.47269500   -2.81217102  -76.67755259      4.73923260    5.35521337    3.87579258
    1    5.24915425    8.67273125    3.08110696    -24.46639548  -10.72115415   47.82971068     -5.18468495    0.20824753   19.67285374
    1    6.46206147    9.47903400    2.77232424     19.37925470   17.39905648   27.61045195     31.17667628   30.31406377   15.80591244
    8    0.42684433   -8.86070329   -6.63645860    -61.97047305   73.70578058   43.59855552      3.26984238    6.73479294    5.97402523
    1    1.31562676   -8.67727172   -6.48949800     60.57782669    9.70529753    7.62511318     41.66442250   15.64223330   10.46282859
    1    0.46624467   -9.59484876   -7.13349608      3.79067426  -78.15511217  -53.87416535     15.58362631   -3.41446175   -3.10854634
    8   -0.74198347    4.93147085   -4.32824963     94.95433135  -28.19078543   15.93730559      7.42045106    3.68462087    5.46859280
    1   -1.06977836    5.77059085   -4.31608206    -25.13436251   76.65825145    0.95756881     -4.52671147   37.22146330    6.92139728
    1   -1.48306524    4.46599819   -4.52687879    -64.15971549  -50.33870056  -19.36530932      0.84999062    4.73118945    2.35726932
    8    4.75658083    2.64227301   -8.11027214     -3.59209461  -77.85488953   33.96247988      5.10696516    3.33189107    6.29823633
    1    5.30069012    1.77405407   -7.95065390    -25.74658297   53.23739689  -17.36987991     -9.10224047   28.11810970    2.64822876
    1    3.83344470    2.30259031   -7.85575839     32.69069660   24.03355409  -19.31670634     33.99051754   18.71944407   -5.49593365
    8    2.99083679    5.91903496   -3.41660657    -38.12118544   30.06921127   67.06634415      4.50718606    5.65502106    6.73677172
    1    3.25533142    5.12414544   -3.75877363     17.16083459  -69.08129702  -27.31130826      8.83477643   -1.89728802   -0.76676883
    1    3.31959527    6.51366509   -4.03630065     18.29522802   41.97763689  -42.72617193     14.77591773   20.93931023  -10.06915540
    8   -2.92500463   -3.12705083   -7.39296797     14.43645085    5.70708712    4.60219356      5.06995957    4.50532828    4.66479752
    1   -3.86425080   -3.28987968   -7.54823283     -9.61212547   -3.40000292   -3.08431308     22.27168282   15.35421647   13.03990785
    1   -2.92782815   -2.22329885   -7.01185585     -3.71650077   -2.44580766   -2.65254376      4.54795167   16.04738971   14.74169565
    8    9.83507114    1.20892245    4.79026911   -117.14833783  -47.40269807   42.51197389      3.11983529    5.86468402    5.85738324
    1    8.76791886    1.16552291    5.01502835    113.62448885   14.38342769  -33.97702924     64.50845367    1.23427896   -3.99209688
    1   10.06773490    0.23476922    4.95531970      1.71999951   39.50524828  -15.81763769     -8.63791041   27.42147042    1.66590100
    8    7.39233556    8.90887092   -8.41181280    -65.46479290  -15.71844639 -103.64161119      4.12121152    4.44661345    3.75631832
    1    7.30402500    9.69653696   -7.95479224      4.33780959   52.62573992   46.40401430     -1.05719325   45.60878627   21.71305675
    1    7.98189013    8.41387317   -7.95704853     60.19632055  -36.38946858   58.22207465     37.04704811  -16.83909554   26.11865218
    8   -2.82915001   -3.42661275    3.09783360     62.17184346   52.59723459   53.01397161      6.81538640    6.76961039    7.11673075
    1   -3.23203499   -2.56542773    3.54816153     40.52959655  -62.48417703  -28.77505529      4.84824331   -7.69987867   -4.31940470
    1   -1.80254678   -3.43335144    3.41680905    -98.80201431   11.40438651  -22.12988766     -9.80081976    0.91261833   -1.68510906
    8   -7.27423148  -10.22071774   -8.86107146     18.67982571 -121.55001120   87.74320080      4.47878418    2.56996246    6.92275389
    1   -7.82256774   -9.70557780   -9.26683215    -79.45298622   81.57735573  -66.55266864    -17.00234952   31.18193705   -9.06495651
    1   -6.45429253   -9.85964378   -9.02544370     62.27013318   33.15947419  -20.20336886     40.38343524   19.04740281    3.84944457
    8    8.61499580    4.25357345    1.49153601     52.43012295  -22.75202455   70.01420045      6.42665525    3.87107623    7.59338948
    1    8.36617361    4.77138174    2.34708479     14.98428387  -38.19906241  -46.33360996      8.31202023    5.28826984   -4.50103709
    1    9.34500159    3.55284589    1.80807999    -69.18044513   58.76501112  -24.93266628    -15.74790955   29.38234573   -7.07744438
    8   -7.82444273   -3.80359289    7.44212887   -114.57411538  -42.77205625   42.37027723      2.10445764    2.88106760    6.27789476