 BEGIN_INFO
   #
   # This is a XCRYSDEN-Structure-File
   #
   # aimed for Visualization of geometry
   #
   # Launch as: xcrysden --xsf .HICOLM.XSF
   #
   #
 END_INFO
 # estrutura final
CRYSTAL
PRIMVEC
      20.67894129       0.00000000       0.00000000
       0.00000000      20.67894129       0.00000000
       0.00000000       0.00000000      20.67894129
PRIMCOORD
  927    1
    8    5.13742194    3.81455833    2.69487566     -8.76884875  -24.28776038  -23.90897081      6.15380317    2.83920608    5.27404334
    1    5.61537538    3.62923843    3.49774944     12.35279080   -1.33959757   21.83386654      4.18357211   28.90491412   10.46906647
    1    4.93598577    4.74301416    2.80217575     -4.69938810   23.90627942    0.77339749     13.78870428    5.07509191   16.45614963
    8    9.81492282    7.96183543    1.38236536     17.39812431   23.04797719   -4.59093733      2.20305578    3.68378130    5.68427741
    1    9.00230296    7.58477363    1.71297474    -15.88612161  -13.65148338    6.99400340     15.57123981   -5.62048935   12.81839343
    1  -10.18105677    7.62890442    1.99572546     -1.01646279   -6.86414171   -7.17279046     10.20443374   19.54695155   11.93573771
    8  -10.23383988   -9.96480096    7.59588562    -30.89930641  129.79911074  -16.09623734      7.30564456    1.82934185    7.45387646
    1  -10.07536293   -9.19653188    6.86682942    -11.54689733  -77.58936108   58.49300193     19.15365861   40.81011865  -22.21550125
    1    9.82440542   -9.43453760    8.25798970     40.50381358  -49.62848531  -45.32442372     -3.68003060   40.43045683   17.34292459
    8   -0.54191716    7.25389401   -8.59486804     17.38128701  -10.76024734    7.25485126      4.66308539    6.22223560    3.12385904
    1   -1.19474469    7.48070220   -7.90417097      2.38308613   -0.97000747    2.01051433     10.73754367    0.33492040   28.34963189
    1    0.19634142    6.82159072   -8.07045963    -20.20507275   11.21893994  -12.57157312     28.74371842    6.82083549   25.89264664
    8   -8.56953991   -8.31704016   -9.81182908     39.09022167  -61.86974837   -2.85808242      4.10873122    7.48099958    4.81514332
    1   -8.03812579   -7.74199848   10.33940109     15.94184019   23.82905069  -21.12434832    -21.58214705    1.02621718   19.55167047
    1   -9.27770100   -7.79226272   -9.56907554    -54.80852064   37.26721707   17.45040692     27.42053305  -25.34519406   -3.50086143
    8    5.46420850   -0.83458800    7.84015765     85.61599750   53.85798190  -30.90589952      1.12443031    4.78998717    7.47087854
    1    6.18810603   -0.05245849    7.85751062    -63.66973859  -65.55847474    6.39156746     59.05433813   43.30550614    1.09673288
    1    5.89460783   -1.46853304    7.18141024    -17.70087487   15.11003252   29.77297834     32.29280755  -16.51306947    5.46467573
    8    3.80184481  -10.16252576    7.82749693     32.29775374   13.19304735   49.13855058      4.32975464    5.88710889    6.00740168
    1    3.07011996   -9.90965233    7.29583269    -32.11694546   12.66443710  -21.77224448     27.40001811    4.61072656   24.66351978
    1    3.74116810   -9.49725511    8.57811196      1.80840798  -22.06372534  -23.33379030      8.27672287    1.07062585    3.61897441
    8    4.26249033    8.29641397   -4.87859939    -14.04436847   12.73542938   22.85334039      5.22470761    3.95521011    6.81904891
    1    4.50741227    9.19515527   -4.54909880     -1.85261062  -10.41040641   -7.57016691     12.82491207   16.39568759    5.83090799
    1    4.93361235    8.10683427   -5.53961013     12.20055228    0.17931616  -15.31319412     13.66718004   27.49728582    1.63307676
    8   -1.88609710   -5.59934580    9.95941136     14.16362271    9.08927613   29.82991872      3.36696365    6.03822562   -0.53313879
    1   -1.96743069   -4.74884805  -10.18005816     10.53101594  -29.97764436  -18.31491460     18.78835098   18.29922921   52.36662177
    1   -1.12644384   -6.08892910  -10.26652177    -20.36851648   22.57515077  -12.58782787     41.74867985   -6.86240082   27.30850751
    8   -1.60420287    2.27072478   -6.50476045     11.88709743   -9.05670670   18.86202757      7.38726455    6.66041301    6.00858834
    1   -1.74755666    2.94744624   -5.83128029     -1.31816319    4.22705675    9.91273184     -7.68245705   -0.46601617   -0.68157930
    1   -1.95860263    2.70669022   -7.27524539    -11.10324328    1.39108305  -24.45749389    -14.75006987   -5.56401598   18.25207858
    8    2.10575055    5.80644264    4.86231972     19.82587526   15.53140217   26.93282380      2.32382402    5.27345673    3.12180881
    1    2.25944756    6.54029885    4.25581001      5.19876794   14.15118360   -7.76189683     21.04720761   -8.67067333   31.33333898
    1    1.59281330    5.25489903    4.30718756    -24.37412089  -31.52829645  -19.22007349     38.60505710   12.00671572   22.41508921
    8    7.93621123   -5.47007967   -4.40882346     16.66655439  -13.91107329  -11.36180838      4.16486786    5.47970363    3.87754213
    1    8.73313772   -5.67928020   -4.95271484    -13.94339738   16.66219442    6.82950823      7.46958503    5.04368249    4.54359682
    1    7.69814986   -6.35667989   -4.09354577     -7.94007270   -4.64602422    3.54021979      2.99557872   11.25417447   11.77586860
    8   -8.32608207    9.30575645    3.81953992    -12.58374894   -8.82197207   27.77468847      5.35915350    5.29849505    6.09810901
    1   -8.45050230    8.49389886    3.29745148      4.75832272   -1.71083288   -2.24426507      5.89390702   11.78487632   -3.54313876
    1   -8.55842891    8.98970429    4.74719035      4.62201739    9.55320692  -26.42617301      0.92607861    5.82756675   20.18509064
    8   -1.52684124   -7.81164962    3.64689656    -38.15436916   35.71358912  -23.70084310      3.93370993    6.34117295    4.65659594
    1   -2.13758552   -8.37229558    3.09217613     15.33720054    9.38135044   14.04859012     22.95298542   -8.49179599    0.83737848
    1   -1.95010180   -6.88240869    3.53268929     20.09768083  -47.35675301    6.55516128      5.53454535   28.37154503   -1.94134638
    8   -0.83844206    4.88797444    7.23992274      1.95776477   28.77466438   25.58557655      3.82137245    3.28569838    2.32524291
    1   -0.60775391    5.52191159    7.99363180     -4.93274027  -32.33288625  -25.26131347     16.53537414   36.85746322   12.09751646
    1   -0.02997381    4.34637045    7.14850508      0.03891848    0.92464542    1.43048672     29.04988874   20.54924981   26.46438725
    8    3.33616053    1.69001464    2.28792063     -6.27995328   -8.18971475   65.17626296      5.00637164    6.00821450    5.44722130
    1    3.97314333    2.39645391    2.47304428      5.05147040    7.91818904   -7.63704869    -14.12945157    4.04917529    0.15057336
    1    3.30767929    1.63724191    1.36191549      2.75808897    0.21141869  -54.92098396     23.34769594   -9.51389389   36.88791077
    8    2.74186477    2.59335795   -7.15026021    -11.29922661   21.06701293   30.16504284      5.73315379    6.38622332    7.13243851
    1    2.17015935    1.85464697   -6.85141077      4.06741542    4.28119099   -3.36336558      0.14928667    5.92363289    8.99178688
    1    2.48327883    3.30432515   -6.47643649      9.32372789  -24.52583386  -27.60049008     -7.64379454   12.91933477   13.72102854
    8    6.72560166    0.83116924   -7.15688716      2.45719058  -70.21674866  -40.16061491      4.81944038    5.68901965    6.63742089
    1    7.23384866    0.25795802   -7.85339785    -20.27701431   39.94441011   43.03196704     19.73883139    0.41244761  -21.07039172
    1    6.15739109    0.10262059   -6.75551734     21.21894401   29.76483627    0.06821759     -5.91177617   -5.64112271   11.42706858
    8    0.33693775   -6.59834236   -9.55235988     56.43971900  -21.33497831   10.60450083      3.01826370    8.00218851    6.78213454
    1    1.23708448   -6.25775409   -9.19667383    -47.20460713  -14.69138333  -16.94296763     45.91797118    4.88615944  -10.37292247
    1    0.56106683   -7.56259035   -9.79062329    -11.76518790   35.48899012   10.30959082     13.97872656  -29.59921804   -0.81979700
    8   -3.34867018    0.29887925   -1.65890505     66.97231439  -18.41170785   30.77688654      3.16122779    5.89138020    3.09390877
    1   -3.28282069   -0.35935649   -2.38511828     -6.19524063    6.41870172    3.34896499     21.44783043    1.02445541   -1.33709598
    1   -2.47119176    0.10102311   -1.13868239    -58.86103000   12.97632917  -32.99163355     14.30941364   13.36726795   22.44237378
    8    7.83473855   -8.98948824   -6.17038557    -26.79489819  -23.88542142  -31.01935249      4.53343722    6.74935297    6.08588081
    1    7.36928326   -8.82943625   -5.35575569     -6.99892197    9.83687265   20.42450314     32.89729544   15.18430262   -1.59030918
    1    8.70499447   -8.66927877   -5.99178620     34.76964395   17.52901865    9.36512998    -15.87921876    5.92847682   11.52692786
    8    1.95381641    4.36588984   -5.24504059     25.85170292    6.96290296   20.84369512      6.19612633    4.53467899    3.24853706
    1    1.27966210    4.81001639   -4.68843178      0.62290435   -5.79455190   -1.32385577     11.62880118   20.26604342   15.43600470
    1    2.74664830    4.29735487   -4.63113158    -23.56561249   -2.20197923  -17.83862172     23.18626833   13.95009142   38.10260196
    8    7.01182181    0.18619923    3.44999798     -1.13974335   59.29556251 -117.63415812      5.38620740    4.16586647    8.38750804
    1    7.45880007    0.79284418    2.64804288    -48.77505976  -69.06602767   90.74146781     44.35956272   47.54499005  -35.40236107
    1    6.09225656   -0.07514341    3.03843500     58.75523741   12.52924570   29.68096644    -39.72415046   -2.27969079   -6.48327851
    8   -4.60810478    2.94575129    5.99554664    -10.02518950   -5.47078718    1.73033642      3.77135601    4.59369580    3.82700331
    1   -4.27318656    2.65785479    6.86570760      2.08704468    3.30456664   -3.59905625     20.48912691   10.70934359    6.99352877
    1   -3.81119548    3.29201704    5.56027838      8.90209296   -0.59741516    0.46008253     16.62502174   16.93784552   19.72507062
    8    3.04706504   -4.96544914   -2.39336255    -59.33751069   -0.18156274  -21.20974692      4.96031927    6.52875827    5.70376572
    1    2.71894438   -4.64821498   -3.30071800     12.90751672  -13.68283926   36.81036125     22.07036318    2.82716849  -11.10511163
    1    2.17112210   -5.29512461   -1.97718407     44.12688632   11.78918740  -15.52397697     10.76242948   -6.22690134    7.15556758
    8   -3.16478080    3.04633290   -8.61183647     17.85160295   45.71860988   -5.61229579      5.23961277    5.52903533    3.04006239
    1   -3.39476924    2.31677295   -9.18126775     -5.82920134  -20.44839668  -15.16220493      8.72363025   18.73142276   27.29214617
    1   -2.84154398    3.73857086   -9.27074807    -11.46473529  -22.90176249   19.30814999      5.09679125   14.91296934   16.53048084
    8   -0.49177914    8.30993767    4.42067292     -7.25841957   11.10386898  -12.44412547      4.49316659    2.31616358    4.59310053
    1   -0.25606704    9.18993239    4.04858304      1.74413466  -13.19176399   10.65182285     17.96545189   20.15281343   17.38266121
    1   -0.00019965    8.24523845    5.25387700      4.54594627    2.79474902   -0.38201081      9.66404159   24.54342443   17.99996460
    8   -8.35869266   -5.03283096   -1.42353885    -12.07546966    4.89426233   16.29686261      8.45153144    7.91418584    5.46349428
    1   -8.57358550   -4.29118937   -0.78252399      9.43032355  -14.63752270  -13.55753127     -4.33151475    4.84472233   32.71147650
    1   -8.94862302   -5.75879904   -1.09039563      5.66716472    8.79812537   -3.50603488     -5.87539574  -12.54798616    7.66561572
    8    3.20662746    6.78871227   -9.28837831     50.64620474 -135.69208251  104.27748662      6.38988061   10.34169490   -0.48222225
    1    4.07121806    6.11040036   -9.07502070   -110.17478119  104.01929682  -31.08404604     54.58605974  -46.72524203   38.58959309
    1    2.52654801    6.47822211   -8.51736351     60.02815517   35.50385936  -73.70375002    -32.50167707  -17.91664103   72.73834833
    8   -0.93484634    9.42102320  -10.28551105     23.24830779  -15.12372283   -4.44934584      5.90139387    6.24573005    6.23158089
    1   -1.86097566    9.50524499  -10.01017337     -6.39593309   -1.14428941    8.19852684      9.80748563    1.58574733    8.59404155
    1   -0.60207944    8.66642679   -9.73625359    -13.00535702   14.87051442   -4.26465390      4.73068777   10.07724808   -2.48585712
    8   -2.77897714   -1.47490056   -3.68763132     48.96325349    2.28018228   18.21182820      3.46315975    6.54526310    4.65040656
    1   -1.80209569   -1.49326220   -3.39815822    -44.33456302    2.54395411  -16.96941144     18.52878822   16.65441599   22.43160506
    1   -2.74549565   -0.92249100   -4.50724682     -5.64089316   -9.21471470    6.05681546     32.72712654    1.16614571   -3.89200705
    8   -7.97748538    3.54590266   -7.18666536    -37.72840967  -17.84609647  -18.35626520      4.06111676    4.68735039    3.06182447
    1   -7.03739984    3.59252426   -7.14989006     36.99287599   11.23382736    3.45658744      5.15690510   19.81614937   17.31300075
    1   -8.26570463    4.02716174   -6.40715653      1.60888991   12.14151489   15.02927601     25.18135310   21.10350526   11.76998756
    8   -2.26099774    6.33957700    3.79280205    -34.14496136    0.75377019   46.13072727      6.25463958    4.98918715    5.01835198
    1   -1.71655353    7.07168368    4.08723011     17.81149720   16.53781952    2.91733769      9.06133505    1.13792042    3.96967281
    1   -1.90433113    6.13083517    2.95869538     17.18002268  -13.78842965  -41.05414772     -5.65023411   25.91196166   22.12824800
    8   -3.99780111    6.02361614   -5.79599589     13.21834406  -72.92297663   -7.25678665      4.89401358    7.04477898    5.23502972
    1   -3.33521617    6.58772445   -6.14200994     28.28570591   27.87601008  -15.34251396    -17.59216075    3.26920557   22.50358560
    1   -4.62576146    6.61731802   -5.48724553    -41.64976586   42.78282542   23.12890566     27.51325116   -0.01320960  -12.07052863
    8   -0.34362009    9.70622310    7.71954202    -18.71293466   57.71076619  -21.93631073      7.23134813    4.28835610    7.94479798
    1   -0.49497609    9.51427800    8.62856285     -7.63918971   -7.61316313   38.42104196     -0.57811295   -8.06843102  -19.81291519
    1    0.07389521    8.94725092    7.40092473     25.30682993  -50.21011395  -16.28344796    -24.93205205   24.07380375    3.86453897
    8   -8.49339101    6.85320101    2.46901674    -11.83159878   14.23994657    5.40254360      5.82282940    5.19658708    6.81171472
    1   -7.60312948    6.89700853    2.07683188      1.99847513   -4.82903932   -1.64651432      3.68343954   18.44163177   13.75407619
    1   -8.43185986    6.11986820    3.10103845      6.98739565   -7.82116300   -1.58213347     23.36435767   -3.47511496    2.45159834
    8   -3.39872036    9.53758862   -9.12645616      3.23869549  -15.64107037   22.40821884      7.92838206    5.05755096    3.68934782
    1   -3.89686493   10.33497826   -9.35397495     -3.20198529    9.38222756   -1.28976224     -7.71010084    9.82249652   16.06659871
    1   -3.42656487    9.55325540   -8.13371281      0.16707257    4.67216059  -21.27203213     -4.26031617   14.04732138   15.95781365
    8   -8.34733277   10.04469838    9.42233676    -29.43140846   39.71420038  -10.08079908      8.71673864    4.06143257    5.13147774
    1   -9.11283378   10.24860685    8.77391672     36.71536479  -10.16130423   32.11968911     -2.06030026   19.46585249   -1.23360950
    1   -8.36580308   -9.84479578   10.05056224     -7.89277045  -27.24981591  -23.59127899      8.76345604   16.45566306   17.08171811
    8    1.44368980   -0.39370270    5.25211430     -0.32389896  -10.00914004   10.26016708      5.05877698    2.56302165    4.70846884
    1    1.30711991    0.43232401    4.78836488      3.66036365   12.14498601   -1.15116351     12.15679111   18.83190768   18.31204234
    1    2.00046510   -0.13506999    6.02300226     -0.95557750   -1.23177385   -9.95355674     16.56366284   32.51050709   24.86522831
    8   -3.84515908   -8.67909857    7.05541833    -11.03696757  -11.68162934    0.68289715      6.92085567    3.18950585    5.38356358
    1   -4.66404434   -9.13969053    7.35771424      3.53762479   11.62669749    0.47481438      2.96980229   19.04018277    7.98935649
    1   -3.30783621   -9.44440048    6.81136409      6.03492574   -0.18435965   -0.84850053      0.89737110   24.16183168   14.07100634
    8    1.11449478   -3.24463878   -8.53764898      5.21559114    8.81249076   27.17471626      4.38599232    7.41939824    2.26805030
    1    1.28377489   -2.73710269   -7.68701388     -1.83611164  -12.20546695  -30.51691528      8.89629197    6.50447273   36.86113887
    1    1.56191582   -4.10031952   -8.38433818     -1.03875708    2.81872101    2.99537240     19.66520204    1.83210331   25.39723947
    8    2.69466260   -4.10863106    6.27191777      1.04308013   -5.55936236    6.20328919      6.95252824    7.97635466    3.90074650
    1    3.23643642   -4.18928852    7.10170534    -15.61200285    3.66820372  -11.47746358     -4.36078313  -13.13439265   18.11511613
    1    1.80450588   -3.85875601    6.59702610     11.04796170    0.75879443    2.79980539     -6.15946582   -4.20129276   26.27668677
    8    5.54626205    2.41823127    9.76922651    -23.11973109   23.00468040   23.78004089      4.11384315    6.02382467    4.43619684
    1    6.03103393    1.84494697    9.18091152     21.92885497   -9.89530341   -9.93846447     18.74751299   -3.69005619   13.83941363
    1    6.23039392    2.78276155  -10.30135330     -0.45215401  -11.64960526  -11.60348021     14.54665790    5.07316143   -0.95389480
    8    9.49378072    2.16134803   -3.55951097    -48.85948721  -11.13865193  -35.02992772      3.67661859    6.07419368    6.05676917
    1    9.11521688    2.23558529   -4.52050774     21.91286682   -1.04224514   52.28582243     16.96149456   12.69746487  -16.57791867
    1    8.70449635    1.75544749   -3.07545911     27.82871244   10.88770820  -15.87404298      8.21052778    6.85750056   16.19433076
    8   -9.30218776    8.54088370    6.20180392    -25.95695068   35.32699716  -34.25209890      4.94925380    1.81512982    3.56351921
    1   -9.63134703    9.29882630    6.73268815      1.97305214   -2.26446258    0.33954698     11.20614214   26.99468229   19.99345053
    1   -8.81931927    8.04962724    6.82326151     24.90090009  -29.98907022   35.69123682      0.03243882   30.24252285   12.08217261
    8   -7.84156367   -2.06222206   -8.34391489     17.67135795   10.86899489   26.01345512      1.19149623    4.47148631    3.35505356
    1   -7.02410394   -1.87303896   -8.89166893    -18.83366756    2.00622110   14.19547996     49.58606744   12.12087828   -0.17235175
    1   -7.62283543   -1.63702680   -7.45472618     -2.41942364  -14.38083334  -38.22093653     35.79709823    5.46198863   27.34159554
    8   -7.17878453    4.73232031   -2.98640739     11.40831446   57.55250812    9.14143256      4.70972092    3.83146087    8.44913453
    1   -7.69469375    4.85825743   -3.81795691      0.61568049   -0.04320760    6.90882842      5.48548731   16.30961108  -23.12715183
    1   -6.88447790    5.69000802   -2.75883974    -12.48244912  -55.79987834  -13.10848780     13.39744598   30.55052240    7.33543827
    8    6.87879807   -7.94751136   -3.76622685     -9.01723154   10.85129282   -6.43217611      5.99698649    6.75222575    6.41868230
    1    6.04254882   -7.60463445   -3.37930857      8.94519749   -0.66951562    0.79461981      2.73086622   -2.55939901    6.45657280
    1    7.02709532   -8.74171352   -3.24710573      1.91069226   -8.66308883   10.52121164     -6.92289001    7.28297900   -7.63945578
    8    4.23534136   -1.73260607   -8.21806235     19.21473248    6.54849230   23.43595603      3.85074565    4.95836793    2.87593257
    1    3.32214070   -1.50893080   -7.94585850      4.36174931    0.96491617    4.05178936      3.52330858   21.75524028   28.18465717
    1    4.77579728   -1.52004646   -7.39304158    -22.75330765   -6.73347928  -27.82120701     11.51989982    7.73107547   26.78762325
    8   -9.72726034   -3.31046213    6.67418395      3.62370402   18.08283232  -25.37989078      4.28268340    5.21764980    7.64764610
    1  -10.23970011   -3.99764539    7.09086797    -17.36136276  -17.88343269   13.73313383     29.73941546   14.31687357   -8.46049558
    1   -8.88407993   -3.37058106    7.13013435     11.66997475    0.92815358   11.81149297     -9.32146535    7.39030634   -1.75899585
    8   -0.22913166   -0.70953284   -2.92393471      0.05219860   35.00974198   37.91254643      5.32975041    4.49755712    1.87059945
    1   -0.10405907    0.27866618   -3.10015753     -5.89257463  -34.77986777    6.73626605      4.44074298   47.71072155   25.52158419
    1   -0.39824259   -0.72894730   -1.91718773      5.46447956    0.53303035  -43.49542405     -1.93027511   18.56562440   47.89458206
    8    0.80035687   -6.03639647   -1.32511367    -25.68480276   19.31820202   32.23901514      4.89801308    6.98055330    3.11220368
    1    0.14054690   -6.02819534   -2.04874273      1.53866776    0.97557022   -1.55575962     24.26514857   10.97518219    7.99019812
    1    0.26969973   -5.62472238   -0.56130752     22.09227056  -16.19693649  -31.21748446     -0.76493699    8.48076184   13.67994410
    8    3.56124469    8.66940246    0.21628974     28.26054993   39.61243142   -9.95419089      5.20844577    1.65568139    6.18182244
    1    2.70527162    8.39955951    0.48403793    -41.41204560   -7.36852775   14.40207529     35.24041108   34.17838718   -9.11687549
    1    3.94573594    7.85385278   -0.04096795     15.58744733  -33.16678325   -4.23295123     -6.99981291   45.04909189   24.84957604
    8    1.21019401    6.45824826   -1.57523534     24.15795432   13.74708361   25.47620128      6.12352882    5.68593963   -0.06025604
    1    0.58387110    6.13820328   -2.17956873    -35.59670317  -18.08275074  -28.03424106     20.59797928   13.80836615   51.44143812
    1    1.95657817    6.65945719   -2.15620602     10.18134133    1.99778450    1.71823775    -19.49439048  -11.57974669   25.05822288
    8    0.15520570   -7.16563918    5.69278704      6.11999245   22.94804678   39.66167516      3.42712989    5.83664285    2.76027206
    1   -0.53962264   -7.33075541    5.05933066    -16.70592216   -6.95244865  -17.27139806     13.64962286   -5.59381754   18.99722601
    1   -0.28323121   -6.55363034    6.35304648      7.73813844  -15.69761149  -17.38382948      7.48393758   11.58185877   13.77646597
    8    7.29050417   -7.37006088    3.56363281     23.77948419    3.48518037   27.14105373      0.87379466    7.21119864    3.25475383
    1    6.47548911   -7.22737304    4.06432812    -10.29897470    0.35494059    7.63613289     27.80054133  -21.07496284   17.92930905
    1    6.97217225   -7.55734270    2.69540636    -11.90605182   -1.93445358  -31.79830346     30.94234573   11.62552631   40.10557854
    8    9.48347212    2.21236262    9.23417290     31.88311195 -109.82130504  -48.35402626      4.47090070    8.84695344    6.99133323
    1    8.90157285    2.48519765    9.83341560    -72.45473430   25.34718206   74.97387997     54.94235208    2.53654159  -32.28940701
    1    9.84880961    2.99398046    9.00230903     43.53092282   77.33955250  -30.56520091    -19.72710944  -42.53621731   32.23559790
    8    4.27803901    4.11873536   -3.74406085      6.76654953   11.67350541  -25.27621826      7.46374880    7.32042143    6.16430214
    1    5.09809811    4.27010308   -4.28005765    -11.67927364   -3.00904831    6.29197812     25.81291890  -17.69504379    1.79606041
    1    4.60899428    3.55523238   -3.03793989      3.50027815  -11.26928814   12.87794654      4.91038424    0.31799303   -4.08669990
    8    7.18279667   -7.49460618   -8.35156123     44.07976822   25.57374696    7.56200357      1.89776581    3.02968922    7.35272764
    1    7.43691382   -8.00675290   -7.56928382     -0.50754017   -6.05825238    7.36989117      7.35057223   28.72515009  -21.33724742
    1    6.36874756   -7.87861307   -8.58434808    -44.06300475  -20.63811988  -11.74961155     37.52853210   24.42346892   12.62641009
    8   -4.00531483    1.07923344  -10.31949822    -29.08185654   18.99643454   12.38932608      6.81536043    4.60868928    4.34531814
    1   -3.58883324    0.22687196   10.31596207     21.75874148  -30.38978232   -0.36260146     -4.27301920   26.14976593   22.49280815
    1   -3.82844691    1.40900978    9.47085523      6.07686838   13.35683399   -7.96677516      2.92310603  -16.50815781    6.85857641
    8    5.71857263   -1.41383142   -5.91925741    -23.81971374   -5.39821358   31.81399071      6.25252395    6.73655523    4.83079726
    1    5.56873336   -1.36148526   -4.91733856     17.13559119    3.23634501  -39.35573051      0.18772005   -3.00055835   23.72186279
    1    5.76540945   -2.38424655   -6.05395920      9.61287914    2.88131679    2.94622345     -3.33642570   -7.80417051    0.95489044
    8    6.39430188    9.60537499    2.97014809     23.58520237    7.72617167  -49.05549955      6.54527720    5.01979180    6.29872966
    1    5.72489474    9.45236727    3.60737263    -25.61836857   -9.99919503   34.12505967     15.69729841   26.20026992   -1.70166121
    1    7.02517059   10.17160649    3.43515775      5.15415648    2.52120555   11.96820774    -17.15299049   10.84569928    5.17786895
    8    1.05360140   -8.36383818   -6.17209742    -21.21782138   65.47394943   39.98660083      7.69778738    4.32365249    3.29169791
    1    1.98572320   -8.19648969   -6.02988545     18.89908472    1.53364670    0.75698449    -30.81898771   -4.58625159    7.87651291
    1    1.07027868   -9.11669971   -6.67788569      0.15105290  -63.10225053  -43.26528836      3.99464533   40.72362313   23.07384274
    8   -0.16810794    5.51983692   -3.85037730     45.00375591   -5.54466349   10.48524157      1.33015515    6.88880161    3.63925215
    1   -0.46883227    6.42347904   -3.91633569    -13.31004013   20.02592026   -1.34357830     23.23728626  -33.20861527   10.98285429
    1   -0.92564322    5.02903756   -4.12997710    -29.51149841  -16.61670358   -9.69105609     51.73337783   20.33539549   33.35914657
    8    5.38585464    3.25196319   -7.54698487    -25.47670287  -85.05508714    7.15601231      5.97742477    6.82520982    7.84857703
    1    5.83039523    2.31714845   -7.52589847    -14.24162764   61.83991372   -1.49526235     27.66148901  -13.49499617    0.07271770
    1    4.41797150    2.97647040   -7.39521275     37.76508138   21.55184470   -6.99817599    -10.70465950    7.64077192   -4.05999639
    8    3.60361074    6.55667003   -2.89056352    -16.80615680   37.18975693   39.60730871      7.48127270    7.35450261    2.95405780
    1    3.62513176    5.75134572   -3.35969465     10.15298916  -41.00244149  -21.66355034    -10.77786785   35.42361297   28.17839667
    1    3.87724017    7.20175014   -3.54325662      7.91375602   11.89994022  -17.99735817    -12.96654743   -5.28435052   24.60604808
    8   -2.33224029   -2.61031250   -6.80321515     15.81375876   30.06316715    8.40685299      5.50236051    4.08481126    5.77970353
    1   -3.25800722   -2.82823949   -6.96902268    -11.82228306   -2.25654830   -2.47376614     20.12952816   15.58843808    8.71779013
    1   -2.37964925   -1.64565382   -6.53510014     -3.62371370  -27.03526533   -5.79660021     10.43636382    4.05177347   16.64729162
    8  -10.23473860    1.75186232    5.32132090    -73.35674323  -45.15855418   33.86943007      8.32531920    5.07177780    4.98770336
    1    9.40563563    1.66722273    5.54601046     86.79473197   15.66834506  -24.64928233    -46.01293347    8.89084718   -0.60197820
    1   -9.89883090    0.82969452    5.57134636    -13.67295635   34.62966766  -14.77026699     12.22806848  -15.91378995    2.18080061
    8    7.93928468    9.56337182   -7.89115769    -42.55326568   -0.07784434  -63.32273764      4.74979599    5.15533681    5.39052258
    1    7.84006264   10.31987111   -7.35508156     -6.04376422   39.98313817   26.55783583     17.07061666  -22.75417703   -5.23462528
    1    8.56128129    9.08367564   -7.43286361     46.97733676  -40.08062574   36.06936788    -27.95535185   26.37536331   14.37391986
    8   -2.30692992   -2.87045633    3.70447347     32.64047539   16.01812929   33.34696919      2.60740211    3.12213963   -0.04641582
    1   -2.68590968   -2.08690597    4.21720410     16.77977926  -25.29560795  -20.42588700      5.87012852   42.84781341   44.23682397
    1   -1.35479342   -2.93671984    4.07496985    -44.67643133    8.50517609  -16.83310062     54.38445848   12.49277316   44.15127184
    8   -6.79557555   -9.71014818   -8.40355520     27.39645103  -71.91525467   66.14029498      4.39264555    7.97028567    2.39525781
    1   -7.35616675   -9.24081118   -8.91873742    -56.89238035   49.47983331  -50.08884159     52.34524645  -21.77220971   35.10984298
    1   -5.94842354   -9.34755433   -8.61695799     31.24537252   15.37613912  -12.88966699    -19.46792537  -18.22592727    8.14923032
    8    9.25087446    4.72436460    2.12927157     20.98991898  -23.90014319   57.99268027      3.26859683    3.98020163    3.34681839
    1    8.93460303    5.22854480    2.95276702     14.35333314  -27.85177666  -34.55949319     19.16236876   22.92929634   40.38685347
    1    9.81490841    3.94431534    2.52130721    -35.16089613   50.92264219  -26.70362417     39.57064677   -0.70703738   29.54592616
    8   -7.37253445   -3.30418633    8.05021459    -77.26844961  -19.03527943   46.96041672      5.70949058    6.28700043    5.03129374