 BEGIN_INFO
   #
   # This is a XCRYSDEN-Structure-File
   #
   # aimed for Visualization of geometry
   #
   # Launch as: xcrysden --xsf .HICOLM.XSF
   #
   #
 END_INFO
 # estrutura final
CRYSTAL
PRIMVEC
      21.00000000       0.00000000       0.00000000
       0.00000000      21.00000000       0.00000000
       0.00000000       0.00000000      21.00000000
PRIMCOORD
  927    1
    8    2.45874299   -8.82132099   -8.69611098     -7.13682394    8.54289583   11.85259299     -0.00186157    0.00224215    0.00307330
    1    2.53977407   -9.63851120   -9.17998719      3.23237824   -9.61569293   -9.27100012      0.01334195   -0.04007052   -0.03825948
    1    2.03713203   -9.07714610   -7.88045605      1.25265060   -4.95939045   -2.58084863      0.00517159   -0.02062290   -0.01063488
    8   -4.00713302   -9.71815903   -6.79096899    -14.70242883  -25.53035951    4.88736155     -0.00384648   -0.00667926    0.00127864
    1   -3.56088778   10.44408714   -6.70416604     10.51864714    6.81052698   -1.74584300      0.04368680    0.02828461   -0.00724430
    1   -4.92215196   -9.95580378   -6.91246397      1.93319632   10.42193421    1.28889374      0.00802878    0.04328197    0.00535271
    8   -5.33135201   -2.94920702   10.13510200     -6.18127317  -10.22563768    0.41885123     -0.00192875   -0.00332205    0.00030803
    1   -4.51665893   -2.56200179   10.44307900      2.51331016    7.60572302    1.16315756      0.01233752    0.03993175    0.00105742
    1   -5.17327497   -3.11327086    9.20958091      0.77451852    5.03304433   -4.08477568      0.00558896    0.02662485   -0.01716780
    8    2.08252402    5.98056599   -6.87420802     16.01272975   -6.63743827  -14.49243299      0.00418870   -0.00174515   -0.00379631
    1    2.31486593    5.05622187   -6.88450396     -3.27586739   -6.37312770    2.01275296     -0.01358277   -0.02622502    0.00849619
    1    1.12956285    5.97901202   -6.89319798     -7.12406108    1.04923289    1.02833270     -0.02957813    0.00443653    0.00432156
    8    5.76024591   -0.69745775   -5.89754310   6048.31034442-7450.66044722**************      1.58282429   -1.94986003   -3.01888759
    1    5.19568975    0.00040781   -5.57724716    947.74283323-1161.38626562**************      3.94646057   -4.83498088  -45.60461764
    1    6.24827705   -0.29112788   -6.60831488      2.24526668    5.98332890    3.65246765      0.00910806    0.02484120    0.02167744
    8    2.88755600    5.24825400    7.50489400      2.48658593   -2.00894152   -3.42470626      0.00064246   -0.00064196   -0.00087567
    1    2.17237397    4.65696096    7.72258299     -1.53997887   -2.51376525   -0.46987866     -0.00631831   -0.00893539   -0.00237999
    1    2.81421503    5.94613410    8.14993704      1.44119574    4.59248537    1.80621551      0.00601856    0.01962615    0.00739216
    8    4.17553800    8.76437697   -3.53399599     -2.97625696  -19.80014105    6.82881860     -0.00078392   -0.00517523    0.00178232
    1    4.14989800    9.22441815   -2.69960689      0.07984465    7.20791212    5.48094442      0.00038145    0.02988501    0.02278937
    1    4.94414102    8.20488809   -3.46530700      1.03988021    4.52400213   -0.21223545      0.00439124    0.01871064   -0.00079494
    8    6.77520302   -0.00089228    9.81106948  19566.04913042   19.4828760714980.38083004  17287.21784469  -66.8171314264870.30089175
    1    7.08442774    0.23863836    8.37572104   -137.80015145 -111.16562283  465.37981467     -0.36631414   -0.21669024    0.92400205
    1    6.93139438    0.60063210    9.82558228     36.72049781  285.62006398   69.73749630      0.11546544    0.62768638    0.30436177
    8   -5.36916998   -9.30848100   -2.42399200     11.62527274    0.99079373    0.14757176      0.00304082    0.00025934    0.00003846
    1   -4.91725097   -9.09815690   -3.23641809      1.45334580    4.93432013   -4.44243612      0.00604038    0.02049080   -0.01844701
    1   -6.22719315   -8.90628999   -2.52662897     -7.36960019    0.46940577    1.54154935     -0.03060371    0.00194902    0.00640245
    8   -9.75849809   -0.40779695   -1.44186655   -838.58483804 -728.24011457  339.59046369     -0.21895551   -0.18938340    0.09007223
    1   -9.96293789   -1.33873708   -1.43441393      5.73401087   -3.64204624    3.55942661      0.02245007   -0.01545683    0.01417588
    1   10.44697895    0.00010717   -1.77479594     -1.53517431    8.18527854    3.28013511     -0.00980844    0.03379271    0.01253906
    8    1.06077243   -8.75575783    6.48432190   1010.08535093  550.78471216  847.65155471  56294.3259099628246.7649597823281.86438112
    1    0.38265897   -9.89267008    6.62497660    328.05907008  268.56842548   85.99680387      8.10414317   -8.34766754    9.86744167
    1    1.47653236   -8.96636645    6.17548912    277.58374342 -111.40900827 -205.90672817      0.69653678   -0.17194661   -0.31851909
    8   -4.45257426    7.83418371    0.42523616  ****************************92046.34944110    -68.76703261   -7.84785147   24.20112973
    1   -4.64182877    7.00259514   -0.00026508     10.86983546    6.71389592   -3.98161784      0.04530527    0.02795336   -0.01648597
    1   -5.31258088    8.19179608    0.62619277      5.53204975    3.74627244  -11.18074355      0.02373625    0.01533720   -0.04659930
    8    2.42188703   -5.76575697    4.23109401     22.58306907   22.16449698    9.91784418      0.00600970    0.00580195    0.00272055
    1    1.71204975   -5.22158918    3.90167995    -11.65820235   -8.51767864   -2.19013787     -0.04921447   -0.03586266   -0.00943872
    1    2.95639792   -5.93854117    3.46106789     -3.53907983   -8.07031237   -5.20242071     -0.01516510   -0.03378934   -0.02217651
    8   -4.14014899    8.79594599   -9.41153099      9.79350402   -7.71447286   10.30372992      0.00256286   -0.00201731    0.00269040
    1   -4.86648510    9.15483108   -8.90939709     -4.58962170    3.71333590   -4.26172385     -0.01906872    0.01541710   -0.01768683
    1   -4.27935613    9.13361614  -10.29192725     -6.28585779    6.64800703  -11.90973668     -0.02609675    0.02760824   -0.04937968
    8   -1.36388103   -9.02411508    8.89324597    -22.07239104  -58.21271799  -24.87600896     -0.00628200   -0.01526189   -0.00591772
    1   -0.43275290   -8.89560161    8.73517282      4.52688499   19.48687027   -5.47075016      0.01905846    0.07891660   -0.03268549
    1   -1.71729903   -8.13934666    8.92112600     -2.15893932   16.37116857    0.64874115     -0.00674189    0.06725103    0.00030623
    8    4.19173300    3.42529000   -2.80645801      0.60134217   -6.40528822   -9.38986703     -0.00033757   -0.00087662   -0.00261995
    1    3.73924888    2.60532896   -2.62919287     -8.22166117    0.59645685    5.94960658     -0.02513705   -0.00671661    0.02588286
    1    4.55790292    3.67376802   -1.96225688     -5.01839862    3.03521636    5.72565945     -0.01723458    0.00595747    0.02351425
    8    3.04607998    3.39416400   -8.94958798    -13.79505901    1.04500063   18.25078434     -0.00362189   -0.00007124    0.00459088
    1    3.77264007    3.10054106   -8.40700403      3.61271397    1.72218609   -2.36140169      0.01464710    0.00978987   -0.00793676
    1    2.80744008    2.62107692   -9.45345715      3.89258607   -5.50964498   -8.10618168      0.01683936   -0.01833929   -0.03122755
    8    8.54549698   -6.09831400   -4.57683799    -16.25597232    2.25698983    7.81436358     -0.00424647    0.00057751    0.00203809
    1    7.65730597   -5.75432394   -4.54093705     -1.27909028    2.70597290   -2.25172791     -0.00542989    0.01155792   -0.00919300
    1    9.09482211   -5.31939695   -4.57170515      5.22716444    2.58978041   -7.16421990      0.02157841    0.01095080   -0.02964683
    8   -9.31860001    5.10326402   10.32803900     -7.39416613   13.53825981   -1.01946603     -0.00194969    0.00353875   -0.00026384
    1  -10.25878713    5.19322285   10.45632900     -6.20930590   -7.18324515    0.11998312     -0.02568351   -0.02968112    0.00047500
    1   -8.96565886    5.08639585   -9.78672393      6.66287990   -7.35019995    3.18035301      0.02780091   -0.03052795    0.01318971
    8    0.07975444   -2.79816312    7.94994110   2626.0808694819775.37857287**************      0.68739588    5.17584246   -3.17960767
    1    1.01620175   -2.96615643    8.00781110    -11.66098119  -19.37479770    5.64455626     -0.04895091   -0.08469523    0.02125643
    1    0.02309400   -1.85986722    7.79235604      1.69850474   -8.94264818    3.53125198      0.00333021   -0.04350279    0.00844105
    8    8.65992193   -0.01052192   -6.23967718    -52.04662532   60.94256247 -137.40138774     -0.01358344    0.01594118   -0.03630767
    1    9.60912723   -0.00391872   -6.32609495     10.91479304   13.61493051    1.80652969      0.04541935    0.05654805    0.00908018
    1    8.42431599    0.91268737   -6.21377203     -0.30857401   17.79870134   -2.47642273     -0.00164258    0.07393987   -0.00728612
    8    7.26057100    7.23368599    4.46991802     -3.33173098   -8.41558273   11.52195087     -0.00087005   -0.00220052    0.00303252
    1    7.31773615    8.17443515    4.61213097      7.31127571    7.10329740   -1.46897718      0.03040441    0.02941720   -0.00619742
    1    8.05448714    6.89118415    4.87102504      6.65142928    7.22588579    1.74527184      0.02760400    0.03004791    0.00715198
    8    3.73988721    9.49200925    0.19322020  11614.8288951930738.6283515312375.84183051      3.04104221    8.04818606    3.24013548
    1    3.01732545   10.08271389   -0.00030393     21.85055351  -53.66859893    3.37667824      0.09079057   -0.22292238    0.01412189
    1    3.31572657    8.65414193    0.35442297   3215.3163044823073.1074777632446.56141187     13.48168332   96.75292818  136.06400882
    8   -0.64382753    8.58773332   -1.71089770  -6520.75059691-1281.70986916 5576.49469615     -1.70615357   -0.33536835    1.45909502
    1    0.00069709    8.30957877   -1.06613449      4.22429332  -11.28296481  -23.34023414      0.01751665   -0.04684277   -0.09702946
    1   -0.54499077    9.53524480   -1.74180441     11.04399315   -9.75229294  -19.59116284      0.04584385   -0.04039988   -0.08136953
    8    3.89451675   -0.02187133   10.28586692  ******************************************  42709.22951327-1734.42892576  760.17703447
    1    4.23452712    0.54163337   10.45100983    180.45304601  240.14397134   -4.90638212      0.67851668    0.60332064   -0.18965571
    1    3.29989608    0.16780485    9.33598702    105.98599737  -25.52506458  157.29978315      0.25679773   -0.04737068    0.32647635
    8    3.62752698   -9.57617297    9.09034399    -15.19105693   21.28695734   -3.21111021     -0.00410657    0.00573935   -0.00106816
    1    4.40725820   -9.24007909    8.65726004      9.14136686   -4.13131645    1.76544510      0.03962601   -0.01798005    0.00862344
    1    2.96574600   -9.57869406    8.40438796     -0.46651520   -1.49746737   -3.19655905     -0.00009580   -0.01047022   -0.00921919
    8    5.57682151    0.01404577    8.84283685  **************  229.54818355**************   -144.38027881    1.94961223  -61.53154466
    1    5.33686704   -0.90550503    8.77387708     -4.52959655   -6.90532400   65.74304723      0.00233539   -0.01216769    0.23873605
    1    5.52478702    0.06734783   -1.61533235     42.52641357  -30.68284850 8541.13338964  **************10930.82078794**************
    8   -1.24028452    4.17234532   -6.95117140   -399.87951009  243.68349635 -304.81433458     -0.10458095    0.06373305   -0.07975932
    1   -0.30418309    4.08527693   -7.10812264     -4.28030954   -3.45875278   17.28274439     -0.01801745   -0.01393291    0.07217382
    1   -1.62035408    3.42371991   -7.40239575     -3.45112665   -4.26713426   11.93131062     -0.01514163   -0.01757956    0.04953348
    8    5.40350301   -8.57770798   -2.83488502      4.23797016   11.70826842  -13.53666007      0.00110829    0.00306257   -0.00354203
    1    5.90508403   -7.96529397   -2.30397280      1.55178954    1.57739843    9.45331377      0.00645453    0.00655347    0.03927571
    1    5.62633195   -9.43150614   -2.47450690     -2.58569092   -6.81390188    4.84546590     -0.01073200   -0.02830922    0.02013034
    8   -9.16862993    2.26789173   -0.00323896  **************************** 7962.31855063    105.82182090  341.98406820    2.18207847
    1   -9.94462153    1.71242366    0.00259501  ****************************14485.25434359  -9438.7774543511895.12810952  310.89529766
    1   -8.38204317    1.72862120   -0.00225865    708.57482937  293.28869232  -31.11367917      2.96024578    1.23466519   -0.12919858
    8   -2.46064185    5.57450731    0.87161097  -1411.27950332  238.87011914  741.32993106     -0.36922779    0.06250431    0.19394842
    1   -1.56170653    5.33925960    1.08392523    -25.45399921   29.08543150   59.34649209     -0.10566025    0.12059544    0.24650531
    1   -2.83678908    5.82799226    1.70991400     -3.83761633   12.69000428    0.18415842     -0.01595509    0.05253133    0.00066147
    8   -5.62285923    0.45381039    0.05051027  ****************************65248.56448797     31.27103582  -55.50326053   18.17107323
    1   -4.75896597    0.05401891    0.00733724      1.58998045   -4.16259951   11.76705663      0.00655100   -0.01711654    0.04877445
    1   -6.05173895   -0.00001717    0.77047365      2.19166629   -8.19700818   31.08412051      0.00928603   -0.03414257    0.12923970
    8   -7.55552797    2.59579902   -4.02671499     22.18313499   14.65081966    5.69710413      0.00579888    0.00382819    0.00149953
    1   -6.74410403    3.07472992   -4.17065406     -1.28730865   -4.06702398   -2.94336423     -0.00532094   -0.01687292   -0.01225620
    1   -7.99923411    3.09337387   -3.34550999     -5.46287205   -6.27367070    0.34215898     -0.02264116   -0.02598782    0.00133378
    8   -7.03398598    3.68903799    6.09198597     19.13042909   -6.41219148  -20.03234626      0.00490531   -0.00158741   -0.00532900
    1   -7.88066411    3.97635300    5.76170216     -5.53461266    0.12397886    7.46703902     -0.02266137    0.00026787    0.03127385
    1   -6.70789203    3.10474087    5.41319492     -1.89495240   -6.26262406   -4.07794648     -0.00708688   -0.02663892   -0.01597859
    8    4.92319700    7.56474102    6.95756700     -1.12646400   12.48559280    2.20679923     -0.00028386    0.00327031    0.00058192
    1    5.01609508    7.61760294    6.01042590      3.70925246   -2.71987788   -4.77496223      0.01531421   -0.01131479   -0.01988871
    1    5.27085102    6.70447884    7.17570005      1.06872854   -7.98500418    2.40422571      0.00441535   -0.03306662    0.00999227
    8   -6.04683501   -9.34052898    0.40369902     -5.53110322   12.37972706   13.29514224     -0.00143960    0.00323858    0.00348600
    1   -5.21154897   -9.11091507    0.00611281      1.48522025   -3.35010082   -9.18844034      0.00608216   -0.01390505   -0.03827437
    1   -6.18592201  -10.24621219    0.14123288     -0.29667667   -8.94936451   -5.83897742     -0.00122935   -0.03716690   -0.02425094
    8   -4.28356602    0.23604585    6.04050485  ******************************************     39.91677524   89.42021148 -210.49438563
    1   -3.45586695    0.00014983    5.63217787      2.29570156   -8.36177060   -8.50020514      0.00881323   -0.03405274   -0.02719734
    1   -4.33646106    1.18052529    5.92853588     -3.56382872   14.58613118   -8.59087183     -0.01312474    0.05873022   -0.02611615
    8   -0.78661709    0.70226904    5.55925696    -67.36039614   34.18373129  -29.04306405     -0.01722243    0.00890862   -0.00752543
    1   -0.86057406    0.20760407    4.74787597     -2.67798143    3.17710739   -1.57307245     -0.01264418    0.01341422   -0.00672198
    1   -0.59044285    0.03995813    6.21603329      8.92786706    6.10013940   14.20702266      0.03208563    0.02553499    0.05627943
    8    3.40312198    8.71180097    9.68997802    -17.98256535  -25.49815781   13.84413774     -0.00468219   -0.00664697    0.00362510
    1    3.94276912    7.93513911    9.80863189      5.78263439    5.22222913   -5.21663030      0.02395053    0.02160794   -0.02167344
    1    3.18978705    8.70463309    8.76103585      2.74611043    4.50922814   -7.00675924      0.01096132    0.01850791   -0.02928294
    8   -0.80511108    5.23883559    0.00020297   1465.66098709 -314.38016454 -790.90738964      0.38346616   -0.08224116   -0.20694741
    1   -1.53387440    4.62450008   -0.00026725    -19.30634210    4.12512293  -11.87475297     -0.08018690    0.01700696   -0.04911690
    1   -0.03272796    4.68034097    0.00060409      1.86288172   -1.48649956    3.99677809      0.00746433   -0.00633194    0.01713242
    8    5.20438046   -0.01095922    5.63609460    222.29711880   19.36368115   74.36211704  ************** -505.90322413 2083.45457900
    1    4.61171353   -0.00255525    6.26879956    -57.68168251  -11.20291463   73.26918408     -0.12335388   -0.04892279    0.15781988
    1    6.10882019    0.00289075    6.14548559    -56.60448680  -13.10863673  -36.05320506      0.11249742   -0.05151339   -0.07849405
    8   -1.03018105   -6.31127001    4.66145997    -33.99931081  -10.46794971  -25.26479708     -0.00915511   -0.00239999   -0.00684561
    1   -1.49754789   -5.51223292    4.88863619      5.14322805    4.31249152    9.01376588      0.02215978    0.01678052    0.03797580
    1   -1.68038692   -6.83634701    4.20317796      3.15053913   -0.44716311   -2.48430559      0.01555783   -0.00162549   -0.00894522
    8    3.92999298   -8.99376701    4.52051201    -12.90887506  -11.50741392    9.80527217     -0.00341199   -0.00287573    0.00283785
    1    4.76172211   -9.45288103    4.44342298      5.09044074   -1.23435742   -0.59544220      0.02135680   -0.00567344   -0.00330606
    1    4.18048302   -8.08570180    4.66600100      0.46891594    9.63555933    0.57278774      0.00298939    0.03983391    0.00035940
    8   -0.42921861   -2.84703199   -7.69368275  -5052.36301625 -753.40040505 1718.66625239     -1.32258333   -0.19710768    0.44978525
    1    0.00002685   -1.99621720   -7.67436186     -6.66086653   38.89375701    6.03397479     -0.02862466    0.16000438    0.02748650
    1   -1.35875924   -2.63628107   -7.69847798    -11.21212840   -3.34852187    1.10294621     -0.04770426   -0.01443828    0.00516141
    8  -10.21412101    2.88367402   -8.23442501     -3.95783883   14.52995897   -9.30367181     -0.00110501    0.00374981   -0.00247276
    1   10.24787607    2.23266093   -7.79257004      3.20551634   -3.71839570   -2.01136683      0.01420578   -0.01486565   -0.00765731
    1   10.20005094    3.62649595   -8.35068908     -2.91039433   -2.64424915   -4.08370573     -0.01158715   -0.01045219   -0.01666407
    8   -9.05675956    0.58016777    2.40338514   1868.78289621  585.54877573  108.96680118      0.48888308    0.15319057    0.02832533
    1   -9.80951900   -0.00361195    2.37208600   2550.90897854    2.25124099  144.37783329     10.59959468    0.00919158    0.60046463
    1   -8.30769009   -0.00602602    2.34203209     -4.64545611   -0.94889749    4.12737813     -0.01892944   -0.00415994    0.01781105
    8   -4.71946500    5.42088401    7.56558801      2.48483760    6.01488883    9.93679706      0.00061604    0.00178610    0.00253278
    1   -4.61710405    4.47696092    7.48172587     -2.65531061   -2.86170003   -6.74230410     -0.01023352   -0.01528193   -0.02660713
    1   -3.90158980    5.70714010    7.96261696      9.79129200    5.21426024   -2.00065429      0.04059433    0.01998894   -0.00791361
    8    9.44274199   -3.39057702    5.76169398     -6.55464277  -19.05831905  -11.70008498     -0.00180184   -0.00491193   -0.00308553
    1    9.31788400   -2.65123087    5.17324003     -0.42536207    6.70159840    1.58797995     -0.00036270    0.02685621    0.00693731
    1   10.06795508   -3.06973583    6.40563912      3.88557929    8.28505333    5.83528181      0.01659550    0.03409806    0.02431876
    8    7.79230199   -3.14235301    7.94687003     -4.95465179   -9.97661292   22.24938580     -0.00140358   -0.00248070    0.00584079
    1    7.35796298   -3.98351208    7.83595194     -0.95248730   -3.15199048   -2.75794097     -0.00340495   -0.01417186   -0.01151555
    1    7.19205808   -2.51853887    7.54804693      3.19326529    7.53617200   -3.70319477      0.01528087    0.02944826   -0.01375887
    8    3.56777197   -6.38795700   -6.61460797    -20.87477757    0.90729361   21.47527967     -0.00546081    0.00024042    0.00561687
    1    4.38261205   -5.90653795   -6.50159310      2.61873449    2.31459046   -4.70686262      0.01087035    0.00956799   -0.01947040
    1    3.84795222   -7.24849312   -6.91372624     10.37578268   -5.94830787  -11.64209170      0.04309092   -0.02470955   -0.04834705
    8    5.11516538    0.09769630   -4.66373495  -6585.60999368 8632.6605014422181.24436997     -1.72429674    2.25979079    5.80889876
    1    6.04668019    0.00011988   -4.48690383      9.85269263   -5.78559989    3.14996596      0.03760439   -0.02363444    0.03216019
    1    4.73544828    0.27626416   -3.80795184     10.27247308    8.44927447   -0.41776261      0.05456004    0.03181004    0.02886322
    8    2.37030805    5.77977504    4.63560302     34.53303880   28.69019530   12.90015549      0.00904916    0.00747649    0.00338365
    1    2.64694791    4.87864886    4.77682095     -4.46172985   -6.96358190   -2.34079130     -0.01891767   -0.02826851   -0.00993942
    1    3.18514301    6.24968089    4.48156503      0.63845152   -5.44368185    1.51191460      0.00254591   -0.02234597    0.00624339
    8   -6.27239099   -0.90350302   -3.16492898      6.56383504  -13.88858208   12.62809547      0.00170622   -0.00362984    0.00331691
    1   -7.13463510   -1.30358733   -3.09443604     -4.78539327  -15.75612737   -1.96500747     -0.01979556   -0.06550898   -0.00828876
    1   -6.41481472    0.00001428   -2.89684601     13.29005992   13.27018064   -0.57358398      0.05531723    0.05510184   -0.00252054
    8    4.38298301   -2.57126503   -7.98841799     10.82100682  -25.97104425   13.08762475      0.00289459   -0.00639644    0.00300689
    1    3.98813279   -1.74628280   -7.72009117     -9.80503183   10.69358581  -10.01971147     -0.04144804    0.04162700   -0.03664016
    1    5.29156296   -2.34487688   -8.16653718     -1.73017613    7.06269400  -10.38939974     -0.00759110    0.02518829   -0.03870153
    8   -8.48502800   -8.80035401   -6.47408596      3.25649763   -8.45851704   30.08109795      0.00085198   -0.00221295    0.00786981
    1   -9.26161008   -8.33489193   -6.77202123     -3.72645688    3.58866001  -10.91931789     -0.01547615    0.01490379   -0.04534750
    1   -7.84409094   -8.11004787   -6.32857716      2.89206449    6.49635201   -7.54666457      0.01201075    0.02697924   -0.03134087
    8   -2.75792399   -6.98259902   -2.43522299      6.90158990  -12.40179656    4.87793211      0.00180530   -0.00324350    0.00127615
    1   -2.32028298   -6.15902181   -2.23852103      1.10792703    9.07395160   -1.51888678      0.00460082    0.03767924   -0.00630964
    1   -3.65934311   -6.83556893   -2.16259995     -5.37735304    3.21969283    2.53861657     -0.02232995    0.01336635    0.01054236
    8    3.81325998   -5.95664499   -9.34052901    -16.05744048    5.35194786   -4.07594034     -0.00420807    0.00143197   -0.00110709
    1    2.88190498   -6.15851713   -9.35861300     -0.87996274   -6.22066592   -0.08882015     -0.00364317   -0.02597545    0.00000348
    1    3.84657909   -5.04696587   -9.05791598      4.31963430    6.49468535    0.89787380      0.01790186    0.02616389    0.00412823
    8    7.93438959   -0.00029063    0.68882214   1212.80579943 2577.46918886  101.00419239      0.31718869    0.67444023    0.02792038
    1    8.59116501    0.61926939    0.38339297      2.03606385   19.17407233    0.20681420      0.00623521    0.07930448   -0.00587060
    1    7.27832329   -0.00041655   -0.00260825    -29.74868133   21.57210981   -5.10398191     -0.13082087    0.08990396   -0.04886155
    8    7.56286426  -10.14053914   -0.00719308    973.03091231**************  -57.83188521      0.25302592   -4.03505404   -0.01540680
    1    8.41817731   10.44811576    0.08066221     15.11880471  -11.43997665   10.00836311      0.06276972   -0.04763284    0.04156510
    1    6.98272794   10.29502690    0.49612524     -3.10165773   -4.75690591   11.46313661     -0.01288418   -0.01990759    0.04759797
    8    0.00706304    7.76360695    0.48220806     32.05899911  -35.21797090   48.39578527      0.00838125   -0.00920568    0.01266876
    1   -0.00059703    8.58525135   -0.00084742     -1.69351428   16.78946721   27.77867439     -0.00699884    0.06967185    0.11524211
    1    0.86921087    7.39879992    0.30300614     -6.17482948   -4.00644340    6.88198099     -0.02561786   -0.01661812    0.02860582
    8   -7.49816002    5.59327503    8.02027298    -12.42889360   24.11933843  -12.09318843     -0.00328655    0.00635407   -0.00317363
    1   -7.21756103    4.86691279    8.56996813     -1.72294163   -9.65295537    5.99348871     -0.00642164   -0.04095096    0.02500439
    1   -7.14423998    6.36304590    8.45695410      0.94630227   -4.90338030    4.94478245      0.00407365   -0.02059034    0.02056249
    8    7.85421507   -0.00991787    3.43741094     55.87069539   97.81153911  -45.17725145      0.01310339    0.02560989   -0.01176545
    1    8.53784908    0.63873236    3.29458410      2.51573113   16.87795893    5.28207162      0.01685719    0.07142630    0.02130579
    1    7.05932095    0.50852912    3.52602301     -7.42015317    4.03224221    1.75144100     -0.00931031    0.02389398    0.00721527
    8   -5.94510103   -8.77218099    6.61215101    -24.01077232    6.77804060    9.49028460     -0.00622409    0.00175089    0.00246231
    1   -5.62752578   -9.32345810    5.90240384     10.85154831   -4.71744303   -7.86828247      0.04421111   -0.01940382   -0.03254735
    1   -6.35494288   -9.38604217    7.21522813      5.89126367   -8.17312136    6.33132820      0.02414016   -0.03387905    0.02643823
    8    0.00049165   -4.08017243    8.81183884  -1030.60196342**************10577.20973100     -0.26958608   -4.88633371    2.76851693
    1   -0.15945416   -4.95347940    9.15854018     -7.39482343  -18.87310413  -39.24805167     -0.03156466   -0.07928875   -0.16323702
    1   -0.57701516   -3.51987127    9.32277447     -7.07744238  -12.44742829  -25.29976277     -0.03187062   -0.05452777   -0.10566690
    8   -9.22989914   -0.52538922    7.33871076   -109.81366410 -168.46214313  580.45094415     -0.02885947   -0.04408597    0.15184122
    1   -9.02647941   -0.00021162    6.56975083    -19.92622550  -29.96872394  377.02316916     -0.08185729   -0.12441668    1.56622281
    1   -8.91086261   -0.00039699    8.06747191     18.15451423    0.58994489   -4.13769213      0.07712184    0.00256399   -0.01708438
    8    8.71148031    4.17185224   -0.00019132  ******************************************   1892.55874242 -722.53145371   64.77526651
    1    7.92698899    4.73891832    0.00622725  -7238.74260815 8462.38965291  454.11431460     -2.42025644    9.11321486    0.91337571
    1    8.75868713    3.85917486    0.89558049      6.44741126   -5.48562016   19.24167806      0.02614044   -0.02651624    0.09393504
    8    7.58054715   -0.56076708   -1.60352494  ******************************************    -62.95728634 -176.01625690   -9.95338996
    1    8.07043000   -1.37735420   -1.57964819      4.08553170  -12.37872891   -8.93583101      0.00212076   -0.04174009   -0.03960591
    1    6.68177981   -0.83407686   -1.76147813      9.40453415   -8.14303007   -8.07016519     -0.03111665    0.02257485   -0.03217616
    8    0.77465616    0.01429393   -6.34545185    123.07638401  -55.54628000  114.06262808      0.03219957   -0.01452421    0.02957345
    1    0.00565718   -0.54824847   -6.37169562      8.86536368  -22.46381368   18.03920090      0.03645814   -0.09352094    0.07649261
    1    1.50453742   -0.58726720   -6.46332524     20.38556573   -9.69057039  -12.16864408      0.08489245   -0.04053001   -0.04790696
    8    3.95304797   -6.04756599    7.07365101    -18.66420124   11.74903341    7.48799430     -0.00509010    0.00286735    0.00193615
    1    4.29457115   -6.93322304    7.16011498      6.30185837   -2.19527936   -1.16630275      0.02904448   -0.00748649   -0.00445330
    1    4.56829822   -5.51382714    7.56871211     10.35544846   -6.99358032    5.35442720      0.04384701   -0.02872128    0.02248062
    8    0.09039800   -5.32142300   -0.45915901      1.83860000   -0.22629725   -7.90296041      0.00047651   -0.00006359   -0.00207094
    1    1.00510798   -5.30811893   -0.72679592     -0.83152970    3.09332750    3.88542245     -0.00332627    0.01299959    0.01612079
    1   -0.00262404   -6.14986519    0.00292916     -1.81581712   -9.22498856    7.81281946     -0.00751332   -0.03830577    0.03252031
    8   -8.16615598    9.95060499   -8.02321399     14.31175112   -7.31412013    5.96834450      0.00374425   -0.00191352    0.00156146
    1   -8.82735505    9.63731713   -7.41234008     -2.28331494    6.17920099   -3.91742816     -0.00948242    0.02566195   -0.01626901
    1   -7.35603117    9.91971010   -7.52197605     -8.28458881    4.99520913   -2.40721590     -0.03440587    0.02074487   -0.00999734
    8    6.89827744   -1.62259821    0.64740577    336.23575076 -160.15532173  577.68370138      0.08782762   -0.04168131    0.15293175
    1    7.62808501   -1.02195535    0.77012591   -431.79673074-1461.54287280  143.16362154     -1.79191270   -6.07267170    0.58312609
    1    7.21736321   -2.24361643   -0.00145079     11.74076116   25.40359197   12.30299086      0.04531215    0.11000270    0.04206021
    8   10.04444198    0.54139903  -10.05092703     -8.55455775   20.74975905  -20.63946007     -0.00293141    0.00530967   -0.00546711