 BEGIN_INFO
   #
   # This is a XCRYSDEN-Structure-File
   #
   # aimed for Visualization of geometry
   #
   # Launch as: xcrysden --xsf .HICOLM.XSF
   #
   #
 END_INFO
 # estrutura final
CRYSTAL
PRIMVEC
      20.76900356       0.00000000       0.00000000
       0.00000000      20.76900356       0.00000000
       0.00000000       0.00000000      20.76900356
PRIMCOORD
  927    1
    8    4.81053030    3.09021071    1.93369010     -8.64158071   -7.65230566   13.88424722     -1.17095325   -2.78477499    2.07592712
    1    5.05503113    2.96610489    2.86157604     16.20455397  -19.30977664    3.73092919     -2.45771061    4.19826481   -5.63449292
    1    4.55677904    3.98819385    2.13107859     -8.42274620   26.31490182  -14.01684608      7.15992385   -0.46431564   -9.39717613
    8    9.30652308    7.38959427    0.69801288      6.44601935  -13.07965475   14.75152959     -5.36421846    3.64782863    1.86802169
    1    8.55790473    6.82438950    0.98445880      4.56356867    4.09977949   -1.68142812     -5.11503077   21.31609198  -11.72636953
    1   10.05184194    6.98812506    1.22385760     -9.94902219    6.61680150  -10.98081578      1.38995957   14.77152112    1.63282296
    8   10.02685094   10.02414308    7.29316447    -29.11203334   15.08730623   39.78807262      0.18153150    0.91090290   -0.30360266
    1   10.06286612  -10.14853350    6.52151311     -3.83566018    3.83033934   -2.97774096      7.01012989  -13.20407200   -8.78727756
    1    9.30106659  -10.30305473    7.88036633     25.18270695  -16.09800146  -31.81467455    -15.82367883    3.58956052    2.18260692
    8   -1.06199843    6.81726883   -9.34769694     16.19100450   -7.12440782  -22.98019726     -0.62019512    2.24751325   -2.32032063
    1   -1.58952485    7.05723942   -8.58994659    -10.28457247   -1.84265423   19.79895003     15.52403093  -10.57509516  -11.99205742
    1   -0.38317298    6.19116134   -8.98747981    -10.71826788    7.48820192    5.97530067     21.46970192  -10.72551470   -2.82021558
    8   -9.23813376   -8.89218950  -10.31150774    -43.98015339   60.62296334  -57.26529910      0.45214316   -2.15407025    1.10639224
    1   -9.02587314   -8.38013982    9.54442727     -6.56567727  -32.87304575   74.28688309     15.61323310    4.89201805    2.39271681
    1  -10.14618295   -8.45536601  -10.02855670     50.86736755  -23.08485192  -16.17046308    -27.92009887    1.85674285   46.64229149
    8    4.63985084   -1.83153120    7.20808001     -1.35376465   52.08880069   25.74880252     -0.96440052    1.41254133    0.25471231
    1    5.35074915   -1.16215496    7.40377043    -14.35914302   -9.22791654   -0.26874946      9.49159330    1.55552327   -4.91387464
    1    5.15304048   -2.37927947    6.67538062     17.76407370  -40.30602592  -29.41682462     -6.89364798    7.27813382  -15.52633452
    8    3.39171354    9.69769321    7.50980044      3.97192823   12.00153366   22.09241922     -5.89575547   -1.99100362    1.80733783
    1    2.60312275    9.89615039    7.00778671    -14.92505061    2.45070461  -17.99890114    -10.35143348   -6.15126393   -2.08566467
    1    3.21783220   10.35319389    8.22400901     11.57769361   -8.70206623   -4.06237841     -6.17377282    2.35883914   32.82693667
    8    3.36074504    7.44609963   -5.14220743     13.34530143   28.43653577   15.30658062      0.91400134   -1.17599162   -0.10959384
    1    3.65682668    8.34294948   -4.77940799    -10.57751488  -24.49005272  -14.50008235    -22.57530956   33.08235012   15.39496610
    1    3.98693440    7.34497509   -5.90104565     -2.75351317   -0.46021598    1.41226196     -8.77832552   -6.25008163   10.33617876
    8   -2.70476795   -6.11704525    9.40609893      1.23015685    4.31695521   -6.20228680     -0.97184954   -2.84492323    0.03583371
    1   -2.49654552   -5.22885777    9.77440801     -5.14464659   -3.22212882    5.26658090      3.67121829   26.30272834   45.43950104
    1   -1.98910741   -6.64416365    9.81531597      1.28737579    1.86811984    5.18866208     -4.56135227  -14.82387175   42.36354530
    8   -2.44503736    1.91215002   -7.56701372     19.85638773  -36.42310951    0.61339451     -1.45593278    0.76097033    2.25638130
    1   -2.79041413    2.65225176   -7.09540495    -10.03734318   25.03847172   17.85366355     -6.13248396   -1.30206235    7.10254885
    1   -2.87628045    2.02491116   -8.41530478     -9.41982309   10.06779850  -16.00715317      2.63673855   11.29483622   -8.73016560
    8    1.39622442    4.87167246    4.62097046     11.51118122   24.61205290  -41.04592326     -2.47197529   -0.19209501   -1.31432287
    1    1.61301250    5.58715875    3.92780950     -3.73942014  -15.60341237   28.00450237     14.76430927   11.62944952    8.86445930
    1    1.00346923    4.26516698    3.97587752     -8.13586245  -10.11758642    5.29699111     15.51476148   19.88485677   30.64784842
    8    7.36305783   -6.38781128   -5.14727852     32.62495282   46.92114086  -11.00499517     -4.04512858   -0.79285333   -3.12521271
    1    8.14720399   -6.63283390   -5.69206286    -13.04310309   -0.99762080    6.30205030      1.99609407    1.49908638  -21.96555982
    1    7.02460012   -7.20984949   -4.88508104    -14.69354110  -46.43433733   11.89236983     -4.52446051  -15.76562710   17.59224099
    8   -9.02820891    8.57862765    3.46530833      2.62228119    3.83677670   23.95045904      3.79457012   -1.26805832    0.92825369
    1   -8.81215791    7.83681672    2.89325080     -3.81717308  -16.06262788   -6.16963143      3.37804762   -9.84389182   14.69492978
    1   -9.34444064    8.11996263    4.29449314      6.18250865    8.81888409  -12.01305768    -14.58110224   21.56817932   -4.75466466
    8   -1.85479952   -7.92356756    2.87284097     24.23262314   -6.89224268    2.60366455      0.25059898   -0.42877627   -1.85827616
    1   -2.32306845   -8.58528521    2.33393522     -9.63877343   -1.11365503   -3.31671154     -6.10275335    8.69274352   -1.77168448
    1   -2.57113712   -7.35106565    3.13854263    -21.94345377    9.80221026   -5.97593937     -2.73334353    1.66342407   -3.87643201
    8   -1.45407642    3.58512793    6.68753616     39.73658772  -20.45160548   -0.82802693      4.60434820   -0.60222023   -2.06876235
    1   -1.31928824    4.18207810    7.44964468      2.85786077   -6.45680683   -0.71817509     -8.52658804   26.64801800   10.65551192
    1   -0.58516907    3.02246765    6.64163613    -41.83599817   29.13709937    3.09108866      3.35174184  -25.67050256    9.38396916
    8    2.89148448    0.97257394    1.54364201      7.29503744   17.14430787   36.94357241      0.99182113    2.86652898    2.01772605
    1    3.47128125    1.77748905    1.65398502     -6.73185646  -16.86929404   -9.97655228     -4.73195660   -5.55684365    7.12989897
    1    2.74545919    0.93260331    0.60689367      1.21682295    2.96681158  -28.88757826      2.06839942    8.11287777   -0.73634050
    8    2.16274215    1.98931345   -8.07148511      2.28076933  -23.64806756  -14.95360426     -0.02818789   -0.10465693    0.38258519
    1    1.45031738    1.50519556   -7.62739038    -13.78457494  -10.58853478  -10.02537268      7.80817259   10.31696129  -22.61018296
    1    2.32963020    2.50775624   -7.32816609      9.84920258   35.36221293   28.14209223     11.53079906   -4.13308593   -3.25473166
    8    6.15072140   -0.00012195   -7.79439225     13.25339034    0.35044094  -42.58726239      1.27950682   -1.04033390   -0.22806742
    1    6.47887720   -0.58316213   -8.53131631      6.87527509   18.64763302    9.83756542     -1.90166998   27.52202294   10.86456140
    1    5.76955858   -0.73339649   -7.33385391    -15.86812770  -15.03497850   32.60836765     14.16609254   -4.24546414  -32.83745775
    8   -0.50337275   -7.14393791  -10.07152717     11.23056236   29.65155167   11.77681900      3.69370250    2.81334563    2.34768211
    1    0.38809068   -6.88974541   -9.67419152    -19.63658763   -2.14451056   -7.00095762    -23.37361584  -16.73727257  -34.14090222
    1   -0.30156565   -8.02394855  -10.35551204      8.51562242  -28.69805749   -8.76199357     -1.00062473   10.94113650  -10.18857666
    8   -4.34809758    0.32391235   -2.61881143     15.24170178  -40.72205745  -31.50963482      0.87703113    0.26722402    0.41585384
    1   -4.17250718   -0.47105846   -3.26686123    -11.82641216   40.74704539   32.25232332    -13.09731407    0.84619648   17.57272631
    1   -3.50995417    0.32053119   -2.12985236      0.93568288   -2.88800366   -2.02241602    -32.93023189   18.16908036   -5.70491298
    8    7.01414406   -9.90350737   -6.73974632     14.26844019    0.86935922   -9.15312045      3.01819296   -1.19571009    4.05784391
    1    6.60400193   -9.53633681   -5.93544590      7.50050550    1.59088580    3.86801830     22.71158377    1.15312718   15.49289466
    1    7.97511695   -9.61279842   -6.67594094    -22.62310412    3.49446814    6.18371526     -7.64282733    0.68580488    3.18789545
    8    1.24500023    3.74516080   -6.00261822     60.29628968  -33.36949772  -69.24166147     -0.11835439   -1.40910857    1.60410654
    1    0.56854214    4.05665669   -5.53767367    -69.62999360   30.74025037   48.39771736     10.67281640    7.99900384   -1.06295237
    1    1.95309670    3.68656945   -5.38396801     20.75987095   -1.46475960   20.63258848     -6.26004872  -11.28873459   -2.16964859
    8    6.23838762   -0.44570464    2.98489788     11.36979703    1.77213191  -16.68306151      0.77044288    1.69907359    2.10508525
    1    6.72080218   -0.05049744    2.19929676     -9.55933510   -1.91267489   17.16082286     -7.94792361  -14.49466547   15.60216511
    1    5.36461782   -0.60933871    2.58219895     -3.84492664   -5.19480550    4.07825279    -22.70350978    7.81894127    8.34212751
    8   -5.25816392    1.81820261    4.86889021    -27.24492017  -10.05284579   -5.88535528     -4.11157876    0.18923438    0.34386704
    1   -4.92414196    1.40392001    5.65717945      3.13967753   -7.07040599   15.38313894      5.40643827   -7.85764220   -6.54526305
    1   -4.46538417    2.26872761    4.63992982     22.37857136   20.23083917  -13.93026994     34.57511286   -1.24793883    6.00130741
    8    2.61704849   -5.71450419   -3.00201670    -33.34751238  -25.76740421    5.08351178     -1.80976077    0.11201885   -1.35281240
    1    2.21348116   -5.24496499   -3.77874448      0.70719196   -5.15327749   10.87906825     12.31881547   25.86737483    8.12363193
    1    1.84219149   -6.31997595   -2.68055070     29.29109379   38.95947679  -13.40396593      9.15510438   21.72329826    2.30698698
    8   -4.01818223    2.71082995   -9.61560399      2.41716790   -6.19516493   -3.01054439     -0.51212331    2.75577888   -2.19111872
    1   -4.13410766    2.01033035  -10.29050604     -3.34830341   -5.29428181    0.83503937      2.50152661   19.80580324   -1.32129216
    1   -3.80306315    3.45491572  -10.20021358      3.85191272   12.60104464   -1.98699885    -10.13768369   -4.46401240    7.16773439
    8   -1.11654456    7.97244459    3.62824124      0.99734557  -11.05821261    7.83361097      4.81067112   -2.53559914   -4.31467338
    1   -0.55344008    8.71934891    3.55961323      8.09613453   25.81908592  -13.73655804      8.54647029    8.02242130   -3.10327744
    1   -0.77181085    7.64934040    4.46495737     -3.07290439  -11.08724203   11.01523710     -0.81977230    0.62383263   -6.02549907
    8   -8.84986967   -5.42893212   -1.91320210      8.38026226   29.22747351   13.43519000      0.81015231    2.18373890    2.82150292
    1   -8.94666008   -4.71243508   -1.21929050      0.30356146   -0.82520008  -19.56722236    -13.98566871  -15.91711442    4.47170891
    1   -9.30346191   -6.09883890   -1.39003353     -9.80528245  -22.77731930   -4.47882860      4.64032661  -15.46160715    6.64473632
    8    2.55936184    6.06729610   -9.93674615    -19.65700754   18.96200076   -9.54091408     -0.13857680   -0.76768111   -1.80653804
    1    3.27863537    5.46031048   -9.72227420      1.77843900   -5.43719521   14.22184514      9.96719196   25.34877279    4.67985209
    1    1.85850645    5.94859556   -9.23012911     20.76724789   -9.63997120   -7.34400339     -5.28782673   -7.27257042    9.85735819
    8   -1.37222545    8.91322351    9.78932614    -14.44765174   46.76402392  -57.52630907      3.14180551    0.10944291   -0.21569099
    1   -2.30431029    9.24252174    9.94903596     17.79365488  -15.72154166   13.19133566      4.04365937   16.04858662    2.26535052
    1   -1.17622705    8.29482484  -10.31819799     -3.81890662  -31.16633153   39.13122973    -10.45297203    2.53101982    9.47310411
    8   -3.51760940   -1.72289443   -4.42746122     17.20834866    4.99473281  -35.77541456     -3.50191225   -2.52333995    2.26298605
    1   -2.52512290   -1.71083753   -4.34854037    -16.27673477    2.59890490    7.26066603     -4.94322292  -24.04136615   -4.60293079
    1   -3.57012589   -1.46720735   -5.39991297     -2.52444851   -0.83043203   27.19445519    -16.43158942    4.73351774   -3.79162585
    8   -8.74161480    2.91628286   -8.06021450     -0.90283339   14.04996980   15.49138548     -2.17565981   -3.09954583   -1.47451161
    1   -7.79147876    3.22864884   -8.06324263    -14.59270950   -1.32637775    7.00856324      9.38673466   -3.58655052    7.66770633
    1   -9.14314092    3.36438980   -7.23332127     18.44137846  -12.13924829  -24.57250317    -24.29923830  -11.06817313    2.62048130
    8   -2.37583628    5.66816088    3.19915676    -23.66605893  -58.50737024  -16.94125958      0.04245203   -0.65662159   -0.96814813
    1   -1.99571492    6.50636461    3.35702483     24.08921714   39.86774769   -1.36289211     -0.05726292    4.18270116    5.46197009
    1   -2.02083319    5.36383994    2.32356895     -1.70479969   12.02105199   11.22761025     -5.80118346    9.57898066   12.64433600
    8   -5.18917829    5.80441132   -7.14380738      1.77650275  -15.10834680   -3.31403161     -2.44565171    0.86689031   -1.35498326
    1   -4.40854656    6.31508613   -7.35874102     10.70786647   13.31506418   -3.98646160     32.82256183   21.16290098    7.64020415
    1   -5.62920704    6.36168436   -6.49031816     -7.25497726    9.40642667    4.10959264      2.53915316  -15.24924932   19.49287535
    8   -0.96103663    9.00819771    7.07358979      7.57367357  -32.99084238   13.32167729     -0.14336927    1.70554911    1.32049351
    1   -1.05770049    8.96988239    8.07190086     -1.33893082    2.08576486  -19.76439802      1.81869411   -9.80901922  -15.58176621
    1   -0.77248976    8.03058137    6.87591766     -5.06046119   34.24104273    2.48999572      3.78449902   35.88775362   -5.00147198
    8   -9.04959025    6.33508561    1.91849863     -3.39500911   17.46306866  -11.77763174      2.01098962    1.59892993   -0.71227054
    1   -8.19863241    6.35618960    1.42824541     -2.94493173  -10.66605480    7.87656757     -7.42031205   15.92810792   -0.00402291
    1   -8.95642546    5.62931136    2.57699387      9.86270129  -10.28445756    2.17067803      7.15734636   11.56897847    6.84688230
    8   -3.80399109    9.56209999   -9.87831471     -4.02942516    7.74893444  -19.96972356     -2.53023199    1.06934984    3.23549252
    1   -4.39239352   10.34847112  -10.06410349      8.44584150  -14.04220973    9.84758991     -1.63340291   21.57701988  -12.49179138
    1   -3.77634783    9.51652293   -8.91249407     -5.19775653    5.84712418    8.48820156     -2.98240842   -4.49179062   12.55160020
    8   -9.00649748    9.44437471    9.23892076    -21.22473550   26.41744849  -21.15136821      2.38251550   -0.59207336    1.33932377
    1   -9.70538636    9.55663379    8.52012308     18.98551989  -15.17328252   14.30327405    -13.66590016  -11.26919156   -3.51749691
    1   -9.13968535   10.34905567    9.61511833      7.59746997  -11.79862373   11.49682090    -10.24691680   26.90014565    9.25400511
    8    0.45330974   -1.09248713    4.87756737     -3.84681369  -21.80175665   -0.85985430      0.11954654   -3.57204726   -2.57857562
    1    0.50790845   -0.29368331    4.35154491      6.78876185   10.38339998   -1.31041510      1.22757190    2.84063182   -3.79690798
    1    1.20785425   -1.00782943    5.50114414     -3.78536558    5.05854226   -0.46357480      7.93905065   16.16964050  -21.20759074
    8   -4.55586794   -9.32513079    6.68796505     24.08082155  -39.31909527   -1.37273587      3.69425285    1.39529554    0.53797827
    1   -5.31761944   -9.81821391    7.02604200    -12.49511753    3.29142319    4.17516477    -24.97918591  -14.21627739   -1.76222330
    1   -3.98531217  -10.16367857    6.53734126    -17.09667292   37.60838709   -3.19059698     -3.04555453   17.71548701   -3.00022240
    8    0.31034061   -3.73642097   -9.00299268     16.27467424  -48.69827591   -6.78990277     -0.91451382   -3.12767904   -6.68563605
    1    0.50630327   -2.98490509   -8.47410457      9.48493121   27.56254047   21.66719668     -6.51901381    1.23601527   -7.93262303
    1    0.82440632   -4.46704617   -8.54416423    -19.21723786   20.56924939  -13.67720441      1.63841652   -9.18753057   11.52928147
    8    1.96988663   -5.00433586    5.61172698      5.24150575   -4.06593474   -8.40991907     -0.13516326   -2.57973393   -2.73678247
    1    2.44033066   -5.10808145    6.45107186      8.50797762   -5.14965602    6.24127187     -9.18035749   -7.35054706    8.57884679
    1    1.25608415   -4.45858704    5.93262667    -14.30668095    8.23912485   -1.11922747     -5.97466909   -4.15764415   -1.81839527
    8    5.12124542    0.46324845    9.77111436    -32.50489245  -13.98300443    7.61107082     -0.86211762    1.75992603    0.16852459
    1    5.54056450    0.20337674    8.94832065     14.97339645    4.30403307  -10.81221458     12.86553029    3.00739758    3.52323272
    1    5.77471342    0.99709989   10.22183268     16.68721133   12.02689730    1.34073960      6.34813839  -21.97142000  -32.07128380
    8    8.90983247    1.23895377   -4.22725120    -20.70598333  -18.86417385   27.33933755     -4.31835069    1.11632483    0.32252389
    1    8.43346055    1.44852470   -5.07704608      1.63897245   -9.80313380    8.85307991     17.24000618    6.37414307   14.12073690
    1    8.26012635    0.60516263   -3.72378905     22.02226453   32.73479832  -33.76979169    -22.06122744    9.00398879   -8.97434668
    8   -9.87254445    7.83058806    6.05292088     -1.37856432  -12.33049043  -27.33372788     -0.10515555    1.80961693   -4.05556268
    1  -10.17182643    8.63196906    6.48024156     -6.63195417   17.40870671   11.21583221      7.15228434   -3.26941555    0.33664252
    1   -9.32973144    7.45618130    6.75259925      6.67804607  -12.53185148   11.50882038      8.07764586    0.53004125   -6.26285031
    8   -8.37818162   -2.46561714   -9.33920349    -24.77182880  -24.94230468  -27.54946583      2.28613753    0.35478023    2.90279169
    1   -7.71251597   -2.22596297  -10.00565001      9.71699830    1.13992813    5.05422736    -12.63272728   -8.37993169   13.25434968
    1   -8.03027602   -2.14127448   -8.52617747     18.46895756   17.71671258   21.50579947      3.21643844   -6.49007690   10.61378190
    8   -7.73861290    4.88916950   -3.96019130     12.30178844  -28.92745574   22.01492096     -0.45922624    0.97371560   -3.83693640
    1   -8.37365231    5.33416192   -4.53381694      8.22331793   22.18812568   -2.17768836     23.34537281  -25.95468104    9.83296756
    1   -7.01408564    5.50511115   -3.70089182    -19.13499003    4.86492783  -10.55241542     -5.67151240  -22.39743354  -10.27780152
    8    6.15791382   -8.66036546   -4.24789013    -11.22162157   48.67066704  -40.24978921      0.71388039    2.06330267    2.07689240
    1    5.38330058   -8.30859934   -3.75590997      4.04775985   -7.20256482    2.57404950     -7.37513617   18.17039342    6.35313365
    1    6.35547815   -9.42622698   -3.77490896      6.84386498  -41.28717667   32.66227388      8.13369861    5.92464793   -9.78192348
    8    3.54989322   -2.50726119   -8.70674506     59.31371699  -25.78507078  -15.34187462     -0.50276068    2.62420413   -1.42183682
    1    2.74250782   -2.14400841   -8.49082191    -51.49142182   28.04243830   19.43875914    -16.17511286    7.08631001    5.61910551
    1    4.09434016   -2.31440777   -7.91639668     -6.65152358    2.58028631    2.22700480     20.26396592  -16.87694623    2.63550267
    8   10.31771526   -4.30238554    5.83371752     37.83392047   25.66567036   43.18461356     -1.93054687    2.76183286   -1.67508226
    1    9.77526135   -4.99643333    6.18045224    -18.07619586  -18.95051533    9.44405161      3.18091443   -4.75402335   12.39358050
    1   -9.79644919   -4.22935999    6.63361984    -22.10072951   -0.62397593  -47.12769677      9.41587220   13.24222719   -3.28373281
    8   -1.00140657   -0.74631125   -3.83175442    -12.07803437  -40.05101473   19.44927434      5.17501006   -4.57908242   -1.72959546
    1   -0.85887640    0.16784482   -3.97689331      4.59212179   35.85854440   -5.18480260      1.05197534   14.10442599   23.34978605
    1   -1.34617434   -0.76047202   -2.88196141     11.60751453    0.06172397  -21.24172729      5.22703722    2.16720449   23.06643859
    8    0.26111398   -6.46576421   -1.84858648    -73.12033145    7.33557887  -37.62390311     -5.48316452   -2.01416660   -2.04413812
    1   -0.47871742   -6.61773876   -2.60596368     54.86717483   17.23353243   55.36162902     21.91573682    0.50448719   16.53148839
    1   -0.19912158   -5.74666806   -1.28861084     14.29194957  -28.19457160  -21.01393235     -0.25680602    8.45714133  -21.95965103
    8    2.92524575    8.24749243   -0.07966423     -5.13288606   41.27638710    6.90173547      1.14295214   -2.27825566    1.90520834
    1    2.08407452    7.93684244    0.32585669      5.13241607  -10.94429636   -5.70383032     11.13548322   -4.03066073   33.80763480
    1    3.42848624    7.48079964   -0.33144578      3.39181146  -28.88648373   -1.48840844    -14.43922344   30.44153856    7.37452145
    8    0.57538168    5.14114893   -1.55652996     -8.86577889  -35.37619082   45.06976685      0.09570679    3.19707324   -5.64481596
    1   -0.26735691    5.48059207   -1.87029100     -5.09018720   14.32180613  -11.70977103      9.85854037   -4.25628696   16.57454493
    1    1.26396589    5.52575418   -2.07210255     14.54211459   19.00186543  -30.51006741      2.95537373   10.57924294   -5.33344617
    8   -0.34644917   -7.93704132    5.13897593      2.58180288   13.27089226   45.02964362     -4.63174417   -1.79131508    0.77367631
    1   -1.05732481   -7.95918592    4.50921723    -14.44110748   -2.62829769  -17.86533311     26.25867724   -0.06360239   29.83569318
    1   -0.74699393   -7.39145929    5.87804938      5.39645088  -10.36309038  -17.96371226     40.36393284   -5.54355753  -24.74835306
    8    6.33681096   -7.61928218    3.24790223     18.36040114    6.86023034   -4.46056025     -3.59023740   -1.59999284    2.56234545
    1    5.86679087   -8.28830601    3.78023566    -13.49970328    0.38205247   -8.79409679     14.79886241   10.99536205  -36.23134038
    1    5.96554086   -7.68090200    2.32971692     -2.59456653   -9.98292915   11.99710761      7.99564903    1.68947317   10.92895233
    8    8.65579086    1.56511052    8.49199175    -16.61195556  -64.39757243  -20.11183766      4.62570196   -2.58757216   -4.67671995
    1    8.12168489    1.87526483    9.19882030    -25.21653055    8.52648286   28.25053235    -11.03345000   -9.04629176   -4.48021702
    1    9.20303755    2.27297178    8.44067871     45.33503724   57.97765473  -11.93587696    -10.54223429  -18.54101765  -17.85635644
    8    3.77832839    3.64816164   -4.66246568    -66.17955707   -8.62652734   44.37764469     -1.47771658    1.23060962    3.26619690
    1    4.46067009    3.91436514   -5.21814720     51.00309435    3.99737113  -24.61051902    -21.61299333    0.13113005    6.60882325
    1    4.18025872    3.13621837   -3.91941416      9.81263971   -0.43428190  -15.71093798     -3.64903752   -6.88910567   -5.76896529
    8    6.43654019   -7.99214466   -8.80970140     -2.70227028    9.87650307   -6.16235266      4.31417232    1.99783735   -0.02573457
    1    6.49255212   -8.53015583   -8.00207555     -3.11653353   -6.56517029   -0.67399277     13.15391476   24.68525718   11.63039750
    1    5.59748756   -8.28073456   -9.22219476      2.19527963   -7.89832597    9.88825150    -14.91412361    2.21664310   19.77948281
    8   -4.40525798    0.74652849    9.32358623     14.40494614   22.40186745  -47.10234623     -0.88481002   -3.81890771   -0.65149997
    1   -3.99966892   -0.13822599    9.46967236     -0.54456101    8.17684680  -14.80224860     -4.36446397   34.72268136   19.22012711
    1   -4.06926880    1.08291688    8.38161688    -10.81171063  -34.91989761   55.83555381    -18.61807701   30.16268351   12.55569106
    8    5.27559999   -2.09840133   -6.38428459      2.48780432  -34.10170157  -38.95571799      3.29701217   -1.56666794    5.72613449
    1    5.28733713   -2.03491792   -5.42651357     -3.23945553    1.47353637   20.61203648     11.46886542   14.51455286    3.72731823
    1    5.43789391   -3.09054721   -6.49563069     -5.92186248   27.98113948   10.69261296     22.62967569    1.95225389   26.13877127
    8    6.04709413    8.89996915    2.51621535    -20.41514975  -14.54880901  -39.37478682      3.21054395   -0.46467296   -3.32776753
    1    5.39776032    8.37294787    3.05442375     12.47611761   16.12942365    7.53288364    -15.93614604  -22.05128323   -1.91993123
    1    6.63341866    9.30357473    3.14120641     13.36346320    4.66697535   24.63733148     -0.66901925   11.77945761   -3.00013871
    8    0.14762358   -8.82483708   -6.77974202     27.13389088   -2.16005950   -5.83079872      0.76126412   -0.06345648    0.87478451
    1    1.14906957   -8.74622753   -6.69811369    -22.42371859    0.32503668    4.89224960     38.44018276   -1.90551184   13.48105014
    1    0.15214940   -9.60719465   -7.36223690     -4.36535282   -2.20289416    0.09276198     -7.83232159   -9.29285520   -1.71091867
    8   -1.09585451    4.68447644   -5.08850015     32.62588595   21.43390394   31.41197905     -3.94482061    2.36174511   -1.23066064
    1   -1.39361142    5.56312064   -4.73562757     -0.15033572  -11.40832120   -9.94432162      0.48218977   -4.66160143  -10.23173451
    1   -1.89550904    4.31736725   -5.41657795    -34.46834122   -8.87559796  -14.86923877     15.81877351    4.85755110   -2.20204953
    8    4.90438055    2.45716266   -8.22620203      8.04859899   21.58268168   -6.49333500     -0.52615543    0.08772668    2.63729770
    1    5.28863946    1.61051054   -8.06001263     14.83768184  -27.95096381    5.52758687     10.96599339    4.04664394    2.88862133
    1    3.99153609    2.21676340   -8.30633592    -24.65798995   -6.12273483   -0.76618267     32.62627460   -4.08306164   -9.80995298
    8    2.70207449    5.73978357   -3.16719580     -0.92382103   34.91091717   -1.75294024     -3.58446419   -2.02087396   -3.26305886
    1    2.85646522    4.92851833   -3.63721891      8.34942925  -17.21940582  -16.81189100     33.72776759    7.26999311    3.26776520
    1    2.93171825    6.42673907   -3.87993048     -5.39196158  -20.25125919   17.71027595      3.20081385    4.84170896   -4.92058279
    8   -2.86357951   -3.10044376   -7.49630418    -13.76533449  -34.89142633   -3.63730765      0.57694236    0.52028862    3.36109087
    1   -3.80694945   -3.37555412   -7.67146604     16.89669538    7.45071192    1.95500065     14.12244352  -16.13875730  -15.17710730
    1   -2.94297352   -2.16882407   -7.32686455     -6.47716846   28.05567378    3.85069974     -1.36028612    3.83482188   14.34199285
    8    9.98874452    1.06714659    5.41263929    -25.06684034    2.44619619   -0.54158172     -2.40950255   -2.31265521    3.49500327
    1    8.99236761    1.07732753    5.30449538     18.48551146    2.22907609    3.04968054     21.88193302   -5.95299888    3.82388679
    1   10.10732945    0.10752679    5.39121643      2.97685077  -11.09543833   -4.98300038    -15.07041791   16.88431895    2.91214098
    8    7.01735442    8.79832133   -8.52056333     21.47092026   53.14098274   75.79833490     -2.57067036   -4.40032118   -0.96329764
    1    6.99590805    9.65073106   -7.89123977    -12.27791414  -48.80658166  -48.99863378    -32.50253676    8.69641911  -15.24004940
    1    7.71904250    8.37415120   -7.94579926    -14.48117871   -7.42537816  -18.90942367      5.04856019  -24.31850021   36.31223468
    8   -3.22089961   -3.78270596    2.85754388    -23.80500294   21.27419073   -5.01325441     -2.45491130   -3.98942049   -2.94510415
    1   -3.52350007   -2.86500555    3.06180708      0.00813263   -9.41326386    2.52738561     -9.03167914   31.15288736    2.11544583
    1   -2.42080519   -3.78207338    3.37274828     21.59633514   -1.31869694    6.78428398     16.26472402   24.92191107  -10.12221516
    8   -7.46061581  -10.07237034   -8.58121505     16.84038097   10.28151273  -19.85900305     -1.46261467   -3.17059074   -0.68543941
    1   -8.10956919   -9.61279503   -9.15013193    -11.09204828   -0.25537794    0.52190753    -29.98475050   25.87992165   -6.61564885
    1   -6.66356284   -9.80625572   -9.12984357    -10.83557873   -5.35490119   18.18017590     -5.10746217   15.80684873  -22.19134736
    8    8.99449067    4.06326025    1.55043664      1.85426093  -16.50455033   58.21034388      0.02004560    0.47919852    0.11638130
    1    8.67054758    4.28635333    2.50149661     11.69251228   -6.21955926  -42.30834022    -26.22134879  -12.29900329   15.16122253
    1    9.51859756    3.22330437    1.73711832    -16.03781251   20.32079272   -5.68345536      7.47907109  -30.24345710   -5.35968043
    8   -8.17017765   -4.11477926    7.29741345     50.85376845  -12.53235816  -28.07516450      0.23418332    4.00012622   -4.44097003