 BEGIN_INFO
   #
   # This is a XCRYSDEN-Structure-File
   #
   # aimed for Visualization of geometry
   #
   # Launch as: xcrysden --xsf .HICOLM.XSF
   #
   #
 END_INFO
 # estrutura final
CRYSTAL
PRIMVEC
      20.58268336       0.00000000       0.00000000
       0.00000000      20.58268336       0.00000000
       0.00000000       0.00000000      20.58268336
PRIMCOORD
  927    1
    8    4.69964473    2.95855648    2.10035259     -3.53746738  -31.17108539  -37.12497082     -0.80942442    4.22988728    0.65857773
    1    5.26610014    2.87027651    2.91527568     17.01344279   -6.06725614   32.94022522    -20.91671392   20.79294161  -27.63397714
    1    4.32848903    3.86776670    2.20883372    -18.33493079   38.38066352    2.16054030      2.75257491  -19.81660532   -7.37488582
    8    9.24602174    7.32194361    0.79351933     21.46252555   29.40018929  -34.08008217      2.44783788   -3.18158567   -2.69630744
    1    8.53893572    6.80023530    1.26779138    -15.23735945  -17.09171107   16.70422816     42.20577877   32.30460878   -7.98017460
    1   10.24394057    7.05207820    0.96637531    -18.29970014   -8.36945863   17.49177384    -20.35084004    4.93692566    0.05456285
    8    9.88272702    9.94781462    7.00899858    -11.08639826    3.07276609   31.00095530     -0.03563400    1.70404187   -2.91626559
    1    9.99513413  -10.14256183    6.11960770     -4.73009492   10.04550515   -9.82935530    -12.56453947   -8.05889842   15.34317809
    1    9.10838035  -10.21913783    7.59237164     16.81794492   -4.53410982  -14.92095616     28.29740561   -4.06884634  -13.65097334
    8   -1.21679326    6.83247680   -9.21347419     51.61925247  -31.97249036  -17.50382779     -1.63627653    0.99776356    0.97331315
    1   -1.79150846    7.24388526   -8.52961510    -34.90418569   18.74257003   32.90898090     39.65928065    0.28161748  -46.48754128
    1   -0.45760307    6.34159743   -8.67626489    -14.46648966    6.02413064  -15.37229766    -20.21261167   12.45234415  -23.29830015
    8   -9.38789764   -8.67452447  -10.19497692      4.88726540  -19.73171011   14.52458062      2.71320779   -0.39214929   -0.31436600
    1   -8.91030885   -8.09381389    9.69414267      1.97194365    6.75537995   -9.53083461    -18.75329357  -14.14496365  -17.84832334
    1   10.25983567   -8.32580222   -9.94636598     -4.79689879    9.35226814   -1.54720318     -8.33757217    9.39954042   20.87929179
    8    4.73580637   -1.95235494    6.78202846    -60.72870371   45.84263189   24.23714373      2.89351422    1.65641898   -2.63191580
    1    5.43191828   -1.27798108    7.03652029     22.64197052   10.75697441    7.78700409    -23.54203420  -24.36099719  -27.92547413
    1    5.11787162   -2.72609541    6.34718073     32.84844809  -48.43950084  -27.08985613     21.94056298   15.16938832  -25.74431819
    8    3.11411856    9.38365002    7.62954528     37.26343338  -32.55094930   24.65040493     -2.22971067    2.55511443   -2.12032989
    1    2.51821295    9.77232069    6.94123793    -30.94941389   31.47117879  -18.88552604     11.96280569  -15.57694921   18.08706511
    1    3.20543451    9.87335017    8.52976646    -10.68189329   16.21462063   -6.77959699      4.25172751   -6.70625507  -30.52390064
    8    3.48076288    7.44170713   -5.13639572    -13.01351543   -5.97781244   15.14145212      0.57099829    2.00430896   -0.91492139
    1    3.59101989    8.43808012   -4.94502575      5.99838560   13.42167990    2.88780980      7.18453133  -19.84994578   -8.58603292
    1    4.03747814    7.15460860   -5.93949741     11.20235984    1.89221475  -17.10415843    -14.84542038    0.77217387   32.33082001
    8   -2.54095814   -6.06732848    9.51707693    -24.66200988  -12.05862118  -13.56042688      4.74375776    1.34224693    2.85709165
    1   -2.55328115   -5.23469399   10.07653523     -7.86937584   32.60642066    8.01041888    -30.36458770   19.12736296   -4.09046600
    1   -1.70389292   -6.49433495    9.87604788     26.80105701  -20.73939197    8.02254115     -7.63318413  -16.94763063  -15.62768295
    8   -2.53719432    1.84906026   -7.62682039     34.45566550  -40.62889945   18.26654061     -1.98744369    0.23999861   -3.05861433
    1   -2.73938912    2.57029831   -6.96157532    -13.12876343   26.81269071   16.31300075     -2.20619916  -19.87580658  -19.19719071
    1   -2.95820946    2.02860930   -8.51558199    -18.50025777   16.79049253  -29.04052520      0.91398848  -18.46229994   19.92653852
    8    1.41398232    5.08680828    4.58382089     32.85476717   75.04032634  -11.91903926     -0.48168801    3.25696936   -4.63434376
    1    1.57861403    5.83648003    3.82500727     -1.07416998  -34.36948666   30.48119541     -6.33944732   11.56612029   26.69682108
    1    0.84502402    4.42234698    4.15784810    -30.17311176  -41.04003077  -25.60043557     22.64177013   12.23445770   46.29085151
    8    7.22683620   -6.43050977   -4.89750580     -8.65843977   87.98491592  -29.32302056     -0.06257631   -4.82853642   -1.17630910
    1    7.93742549   -6.42043258   -5.61178300     16.53849639   -9.21786244  -11.44958256      8.48053721   22.01561083   30.81606355
    1    7.10917742   -7.26382871   -4.44929247     -6.31348992  -74.83809266   29.79190993     -8.35078675   18.66126073  -11.93798609
    8   -8.74823158    8.59027409    3.51847845     12.33869521   30.49412956  -15.00932523     -1.67088054   -3.85599397    4.05724745
    1   -9.06886666    7.95532830    2.80434043     -3.43713811  -20.42190269  -19.37871469     17.09897393   27.18804569   11.82456878
    1   -8.86773006    8.09535976    4.36973098     -7.09486496  -13.65497806   36.28929643     -4.62704597   23.38588374  -31.18507906
    8   -1.85795260   -8.02305429    2.67676944     34.38876195   -0.87874973   12.68018275     -5.00743736   -2.64167221   -0.97105611
    1   -2.39410349   -8.75309393    2.24423821    -17.13182199  -21.00905634  -16.72581730     46.97677028    1.09301633   22.31176547
    1   -2.52856583   -7.30453155    2.87604908    -23.08121748   25.42779841    1.51568077     32.00074738  -19.36949796   -5.75477545
    8   -1.45324657    3.82174188    6.72482369     -7.26059635  -17.52105473  -23.05643746     -3.71943550    1.53970389    0.87299868
    1   -1.31923117    4.42885268    7.51608744      5.00868509   11.44361497   23.75546822     10.17659537   14.49589178   25.10806998
    1   -0.63384579    3.22202503    6.57333212      2.50201628    0.59341320   -0.99022324    -27.57202408   24.14325235   19.25199070
    8    2.90049837    0.80815329    1.35678380      2.80816096  -16.24645573   33.97430468      0.00967654    1.59181323   -4.63667623
    1    3.49292951    1.62102645    1.43941785     11.39913625   19.12006039    5.91966298    -32.07913230  -48.72744817   22.86965658
    1    2.68906845    0.69803036    0.37789751     -6.16451078    1.84064987  -33.27775231    -19.60548348    7.88882365   16.86895389
    8    2.04362515    1.92460847   -7.78698500     45.32635303    5.84984195  -23.94840192     -3.75973933   -0.39699258    1.93816968
    1    1.27870358    1.28606393   -7.80667726    -32.42656007  -15.91208976   11.91906091     39.73220306   11.08930109  -28.11526539
    1    1.81724385    2.77327372   -7.28783043    -10.39269066   12.45947556   15.83440710    -22.33939943  -35.10093014  -20.70681857
    8    6.06424928    0.01319598   -7.79689973     15.13056369   45.25620130  -14.06059356      2.41294654   -0.82107159    1.51048198
    1    6.76629132   -0.53574450   -8.28688893      5.32964568  -14.99150171   -7.36234691    -30.30137779   38.87698299   18.94182073
    1    5.52131403   -0.57540589   -7.21618448    -17.59263860  -32.99352844   21.67378226    -11.20201333   45.99732014   -3.50041817
    8   -0.38771388   -7.12904330   -9.96346497      9.85356161  -14.17938174   -0.16713261      6.89596479   -0.19617104    4.22311608
    1    0.47826081   -6.75620910   -9.53304299     -3.22351226    0.38001349   -0.35383155    -60.97242994  -23.50480928  -30.54726645
    1   -0.18343789   -8.11219163  -10.27271756     -0.83966236   13.94694428    4.88585532     -7.07048695   39.41727086   -6.56572011
    8   -4.12927842    0.25707798   -2.57589575    -29.69659812   -4.63891706  -42.98530424      4.49154495   -4.76937427   -2.45522286
    1   -4.05769059   -0.45765819   -3.36168147      2.52229776   19.42606054   23.21677859    -13.36663627   34.30575969   12.14394369
    1   -3.45192522   -0.00098087   -1.87809747     26.18899305  -10.46780604   14.25580283    -28.89255883  -17.53974198  -19.35094296
    8    7.08332379   -9.61877711   -6.42456798    -18.31790199  -24.60597398    2.33969331      3.22682658    1.74681671    5.86365807
    1    6.64943662   -9.62058980   -5.49283939     -0.88794306    7.05703432    4.94210135     -3.70992681    2.78637485  -18.07244948
    1    8.02351642   -9.24988383   -6.35037166     19.29878872   13.62396199   -1.76880092    -50.49960424   -8.52856951  -24.14324003
    8    1.45675839    3.92038568   -5.93703583     47.26435180    9.41664907  -90.06503495      2.36526536    4.71129958    4.85262476
    1    0.57653376    3.80601627   -5.60190275    -73.69553095   -6.10365579   48.05215054     52.95586348    7.04965803   18.66864539
    1    2.22511935    3.92759063   -5.31412597     26.70584783   -7.64662860   39.10749198    -45.00928064   -6.26021244  -51.02793336
    8    6.11981263   -0.41214351    2.88403549    -22.37974291  -43.29463198   31.94644494      4.63423051    3.31697638   -4.11151380
    1    6.37373209    0.30272209    2.23757548     10.67742557   18.25912938  -29.51464696    -17.36550171  -27.21974161   14.86209627
    1    5.32381943   -1.02044336    2.57557374      7.82147621   17.87077657    0.46853668      4.26131747   11.09212500    8.51242463
    8   -5.04615333    1.93622276    4.77738981    -65.07858818   12.13515166  -60.76775226      4.24805311    2.03629418    2.96551387
    1   -4.69408151    1.50296763    5.53850559     29.12292923  -40.17579620   68.97309620    -10.10248466  -23.85534448  -20.09899873
    1   -4.36080449    2.60360777    4.53023233     28.93339432   27.60327984  -13.90686939     -8.92458807   30.12266055  -50.53725462
    8    2.30059409   -5.47678359   -2.83097626    -50.81685810  -12.27682417   32.31503495     -3.60104754   -0.79482925   -2.60815943
    1    1.97424018   -5.38547925   -3.78080242      1.98371896   12.56213514  -24.42629295      1.71500168   20.48468043   -8.61489793
    1    1.36051046   -5.74595436   -2.37540302     42.96467751    4.68670250   -8.06693227     15.58314928   -2.74521072  -10.39704624
    8   -3.85452617    2.72580131   -9.76880698    -13.76208593  -44.43173400    8.79375485      2.82130358    0.55263645   -4.20532619
    1   -3.97718697    1.88708847   10.19399590     -1.40995776   15.36912268    7.50949716     -9.12230083   32.30697649    5.28697009
    1   -3.61215357    3.55238761  -10.26302176      8.96497573   29.98923641  -24.33553661    -38.74413834  -45.71089737    7.92882605
    8   -0.86796882    7.65395769    3.52176246    -19.23840109  -45.43400022  -63.30603745     -3.25474802   -0.50686615    6.61815449
    1   -0.74022056    8.58467296    3.29529466     11.02160833   59.83322265   -5.76618459    -25.51591925  -24.98478071  -31.44558908
    1   -0.77492604    7.45494206    4.44486689     10.90139624   -7.21951658   78.40935959     -4.02068230  -19.67800856  -11.37006282
    8   -8.84466719   -5.32887761   -1.91763670     30.10538336    4.85457103  -19.59084156     -3.65775849    0.73119629    2.90158032
    1   -9.03182457   -4.47757197   -1.33966112    -10.33400441   -7.18575787    7.12668525     12.26032291  -35.64814123   -0.82769913
    1   -9.41194201   -6.14937483   -1.68801448    -15.43909277   -3.20145558   20.19231274     26.53028002    0.66029958   -5.51206845
    8    2.64812014    6.32452678   -9.82053937    -17.68162102    7.07136461   -2.01781605      0.29846907    2.05766670    2.54526430
    1    3.42987699    5.76766289   -9.48701052     19.23532727   -9.78361645   -2.98441944    -34.70152948   18.04388585  -18.25037901
    1    1.94394388    6.19621375   -9.07529891     -4.44118371   -4.70148386   -4.66348891     37.30196074   15.29603824  -32.61087303
    8   -1.52182016    8.99875309    9.63452553    -12.14767518   61.27934786  -49.74434154     -2.64928841   -3.64827786    0.95616145
    1   -2.46929706    9.12513937    9.99396151    -14.77306331    8.63421640    8.42365423     38.79501869    2.43643198  -18.68417622
    1   -1.20888265    8.21332210   10.07138829     27.43844824  -67.77075380   38.37182199    -10.69262988   23.51963431   -4.96619079
    8   -3.54319035   -1.62871507   -4.35470746    -35.07290862  -10.83897386    3.07949271      3.89423379    2.59683907    0.69583045
    1   -2.55740344   -1.65073638   -4.12686468     21.20316427    4.97346903   -4.99320651     -5.61435017  -12.59820734   12.50242529
    1   -3.72805771   -1.34047175   -5.33913567     12.89831469    3.98549258    6.10627925    -13.52281976  -28.51747568    5.96989535
    8   -8.73267733    2.93268159   -7.94369480     12.98917267  -17.47100370  -17.76111983      0.10663107   -0.61192791    1.44739374
    1   -7.73235813    3.17406372   -8.01170683     -1.06938892    3.63246493    3.71101816    -21.21715766  -10.24685835   -6.40004943
    1   -9.13644155    3.30194588   -7.08533683     -2.92758703   13.36232418   17.94201546      7.46683797   -7.04226235  -33.01652293
    8   -2.59689843    5.73312775    3.04227526    -18.70859946  -51.52521574  -55.95342196     -2.77732812    5.63252950   -2.53717057
    1   -1.91311133    6.43480258    3.24993861     27.65984396   27.70228030    5.47871468      8.93774582  -38.86200584    1.53300608
    1   -2.34337422    5.27910600    2.10164280     -5.95162316   17.20988001   40.02803867      1.68448755   12.79960380   52.84876383
    8   -4.87480864    5.89412625   -6.94988694     17.96680497  -58.22793324  -25.69365608     -0.60420110    3.74431636    1.21746784
    1   -4.05692613    6.42662447   -7.22247508     14.98453260   16.89903654   -2.76241919     -3.73502351    1.40672907    7.63421273
    1   -5.52870032    6.49709964   -6.54932481    -32.93150009   38.80525498   24.95527756     28.14723076  -28.69511855  -11.88255472
    8   -0.85445927    9.10034513    6.99947195    -18.28808433    2.69842529   45.77923409     -2.64323253   -2.07524624    4.37488007
    1   -1.02816147    9.34630044    8.03961408      6.62414882  -24.01493437  -46.31833853      4.44928664   10.10709870  -28.55367861
    1   -0.90188497    8.06525871    6.81462573      7.85476667   19.82013447    5.93742945     10.26513254   30.85684961   -3.96141527
    8   -9.09339066    6.50181060    1.83291536     -3.36305452   -1.73815944    3.68155663     -1.07904171   -1.43496142   -0.66176406
    1   -8.32602089    6.48884389    1.16232887     14.50996493   -1.56993788   -0.55258453    -19.52063062   -4.31072365   25.67212820
    1   -8.90393486    5.79528964    2.56523097      1.48103734   -2.68595168   -3.48872717     -4.75835424   48.03125424   -5.88821749
    8   -3.80436637    9.48660594   -9.70040350     14.84291978  -30.18652143  -11.35083725     -7.03481278   -0.65866448   -2.26345715
    1   -4.47125472   10.20843879   -9.91660579    -14.97711337   28.01427890   -5.92604745     32.91585050    0.72445370    7.60412911
    1   -3.88983662    9.36238945   -8.69886494      1.14609689    1.17346043   17.40238792     -1.26717813   -1.98803840   -5.72003306
    8   -9.03033569    9.60291338    9.06887165     35.08924341  -32.36396822   24.12963162     -4.45231784    1.56163110   -1.95301453
    1   -9.57798340    9.70717551    8.24602744    -31.35678159    5.53136106  -30.16879246      9.06812658    0.09824142    6.18866634
    1   -9.15822895  -10.18936006    9.67873028    -12.09170575   25.16127859   11.99436773      9.71710341    5.86272461   15.06805380
    8    0.93596564   -1.47268882    4.31857381    -21.49682045  -69.58265771  -13.09879454      5.93328482   -1.40067153   -2.79252843
    1    0.81552350   -0.65296453    3.83376493     -9.52399163   58.12147212  -33.68744556      2.71320496   -9.48056737    5.07459860
    1    1.42640222   -1.25450461    5.12921995     31.72952928   12.43409703   50.82306888      2.07086668  -35.50621768  -15.53327926
    8   -4.74165749   -9.29930632    6.59969200     14.90536017   43.46048905   -8.64260426      4.98197390    0.77084141   -4.73753675
    1   -5.49161974   -9.75247463    7.10699809    -13.68792417  -17.03732391    7.41931588     -6.24408589   13.41475495    8.25166306
    1   -4.04166107   -9.93094278    6.23720213      4.77683277  -22.04432171   -2.26587264    -20.94460492   15.96893102   13.86856000
    8    0.47715538   -3.65953071   -9.13048751    -18.36079338  -14.54127915  -33.07570594     -1.71490517    3.16530476    2.47993200
    1    0.61235684   -2.93363710   -8.43766757     10.20804673   21.24938529   18.95983322    -23.52307742   -1.12064669  -23.90469021
    1    0.70172483   -4.57566527   -8.77103193     11.86889532  -16.42061599   10.44137585     -7.14553939   35.93943963  -12.91370198
    8    1.91431207   -5.13818788    5.50554676     19.92736616   -5.50289169  -33.77039729      0.63824387   -0.52648533    4.55073791
    1    2.35577773   -5.00588843    6.38199759     20.36140036   -2.40815093   33.20413772     -2.17941214   -2.96574631  -34.95059203
    1    0.98982807   -4.80058341    5.64505374    -35.10667952    7.80998622    3.85073028     30.34052470    3.72535705  -18.54939723
    8    5.24966173    0.54286367    9.52342833    -44.28490569  -50.84543537  -27.33600579      7.61997872    3.91006385   -5.28818599
    1    5.74071396    0.17625053    8.68503137     -0.14051488    8.53792304   -0.81142812    -35.09593821   16.79909900   52.18762141
    1    5.85433896    1.17968406    9.92855511     41.07147322   44.67007209   30.36576101    -37.23991355  -52.71145027   10.02983556
    8    8.68939521    1.26419054   -4.23916589    -28.62060222  -25.31542384   22.15583750     -1.70100118   -3.41342555    1.40987062
    1    8.28346776    1.48376963   -5.16165341     -1.33015083    3.91625328  -10.56983328     15.92306413   13.48357741   30.79773777
    1    7.94161683    0.64073450   -3.79645433     27.87180568   23.31548875   -9.92638119     21.80288040   27.15512227    8.31422394
    8   -9.70841641    7.63714771    6.09355958      6.37758718  -27.61236053  -44.02312586      0.06824078   -2.54013611    5.04987263
    1   -9.75539984    8.53246839    6.50787042    -15.17139118   40.20331275   13.69759523      4.20493479  -15.69630053  -51.72199085
    1   -9.34241556    7.04664754    6.81494601      9.13436142  -20.60561010   22.19684099     12.96467717   21.54578603  -17.28919043
    8   -8.02197809   -2.60423352   -9.28331179    -31.87753205  -16.53599452   -8.40597149      4.42507063   -1.00616305   -1.63177104
    1   -7.35278232   -2.54412590  -10.06677710      9.15262023   -1.10126227   -3.98898808    -15.74130993  -14.00563468   45.99884210
    1   -7.70967611   -1.98783209   -8.55521396     10.43261481   17.42109746   19.52267476      7.41042203    7.04123479   -4.17468732
    8   -7.63053679    4.86981251   -3.86719695     62.30254752   22.54621359   45.87816279     -0.90488310    8.40129083   -4.91543281
    1   -8.14032459    5.45047560   -4.49852459    -19.85146666   12.19078319  -19.70601065      1.89655829  -29.94409766   25.66235612
    1   -6.86067149    5.51486721   -3.43372436    -42.41533545  -36.13482643  -22.09855018    -43.00833888  -25.51628130  -16.10831619
    8    6.12557997   -8.84030561   -4.00011490     32.52658038   31.20291401  -77.13998599     -1.32354804   -1.12571602   -0.39264285
    1    5.27992705   -8.34169328   -3.95333644    -39.40875729   19.61776768   10.75123923     44.46867935  -24.66959039   18.34765122
    1    6.29133367   -9.37331583   -3.23140969      7.63764988  -48.23150330   65.27024331     -2.74859313    2.17581443  -17.62855020
    8    3.65308844   -2.54193322   -8.38712615     47.66962703  -25.79534607  -13.27950531      1.00848649   -1.56829782    1.42815328
    1    2.79652001   -2.13377386   -8.17941495    -55.06077985   22.36182629   10.05931869     26.09599411  -32.94176582    0.63140927
    1    4.25877173   -2.40122170   -7.55837557      1.91974734    1.81376854   -0.49080110    -15.77942037   -1.67233672  -30.97471761
    8   10.05969137   -4.12546099    5.89410381     42.96548829   51.62634535  -18.07919437     -1.34297770   -1.14509906    0.27987033
    1    9.47382955   -4.82689535    6.31755015    -12.89784231  -27.75285697   16.99980803      2.55315946   10.49788710   14.56440396
    1   -9.60662196   -3.94200501    6.37962508    -19.56517617  -16.27506826   -0.25763600    -30.05337479    9.14018839  -18.90861199
    8   -0.95231734   -0.88271173   -3.67452538      8.00392395  -61.66210953  -29.60475754     -5.17508969    1.95866790    4.87609971
    1   -0.78729648    0.05364358   -3.92404796      3.66775011   54.11748052   -5.77977096    -15.31687919  -28.01555300   -6.57442149
    1   -1.25723694   -0.96619823   -2.72764862    -10.84830782    7.75092196   34.78549701      9.79874302   -5.16830061  -38.20502526
    8    0.07180057   -6.55722910   -1.89247297    -40.22050657   12.40566374  -44.56827668     -6.74571208   -0.58076255   -3.54867907
    1   -0.59221683   -6.57702039   -2.75219928     30.79522331   -2.03719864   41.45724257     11.35683520   -5.94585650    9.19906364
    1   -0.43567131   -5.92605501   -1.23864014      2.63352779   -6.01831814   -2.76188286     -3.57216199   -3.27272586    2.64251225
    8    3.01347364    8.14295504   -0.07556927    -29.83217905   48.88455089   11.68539075      0.84503732   -3.76168756   -0.10858536
    1    2.05992672    7.95288654    0.25147027      0.31346766   -3.12224171    4.24046002     27.65394139  -14.56343753  -48.00702346
    1    3.41662739    7.30858856   -0.38802913     25.62075384  -52.28040330  -14.55139037     -1.92680564   62.89621925   11.17560528
    8    0.60564332    4.95324405   -1.74691053     26.02733432  -21.45875073    2.22132564     -0.16966692    4.31203783   -5.06821504
    1   -0.23263666    5.46838372   -1.91352724    -30.09596230   16.38974921   -0.93342824     28.41900122  -42.77538497    9.97538849
    1    1.38251396    5.43027174   -2.21758251      4.84503920    0.38784158   -6.76274196    -38.60478186  -22.83556845   10.85489297
    8   -0.60629160   -7.97534463    5.21629267     21.19531121   -3.03909006   22.69200772     -5.37345340    1.43810216   -2.14317653
    1   -1.22425117   -8.11513134    4.42548452    -13.83993907    3.74180604   -6.16245206     33.87179710   14.11919452   43.75448223
    1   -1.04621091   -7.59370950    6.08805369     -3.38447734   -0.64936288  -21.13226479     14.83849577  -55.66663927  -43.58635139
    8    6.31414410   -7.73218251    3.32306991    -28.00481500  -11.60733510  -30.03326051     -2.53388130   -2.14099766    3.45166664
    1    5.67836207   -8.13748698    4.00547912     -6.39436221   -5.30740166   13.96305603     36.56019555  -23.31107627  -27.77173642
    1    5.83260894   -8.00789578    2.41790742     23.86166445   13.26377129   14.55149119     31.64005639   29.40900524   26.01650485
    8    8.80136141    1.44500952    8.43888641    -26.74132811  -81.64097932   -5.46029152      0.95953145    1.81660199    4.07867209
    1    8.01451395    1.68117029    9.04049810    -10.37670184    5.75997822   14.65054843     84.83519543   -7.05576291  -54.49705383
    1    9.28113126    2.24584139    8.26504643     38.04615651   74.19853266  -17.22848754    -34.03398500  -56.07814331    9.26067535
    8    3.63921064    3.45865167   -4.37519451    -33.88002498  -38.33609914   54.35376841      1.29337955   -0.20485430    2.28767122
    1    4.46677541    3.60428596   -4.86800556     48.33549648   17.87723622  -39.11312796    -45.79941141   -7.55192491    5.86930222
    1    3.95820375    2.66484761   -3.74709465    -14.76542400   22.52527062  -10.00298089     -6.56381222   47.51262578  -37.62341718
    8    6.28408204   -7.99811967   -8.27343550     21.50607216   60.84954875  -41.38294754     -2.70232300   -2.74614783    2.05761766
    1    6.64082827   -8.62029719   -7.60913678     26.61648495  -35.13887439   45.46630884     -9.16871681   27.50587921  -21.42067234
    1    5.37938080   -8.37150426   -8.42812536    -44.93723548  -14.42209588  -12.88958481      7.00146570   28.80116620   19.48416871
    8   -4.62645321    0.62928050    9.21212172     38.36412568   34.69812352  -54.78730729     -0.25632843   -1.04956942   -1.79766063
    1   -4.33706411   -0.35494995    9.18516235     -2.51136882   -8.17935663    5.95250856    -26.20147657    4.89135737  -16.23470420
    1   -4.15457700    1.04820573    8.31394542    -30.67795143  -23.78316029   47.54715903     -6.88397363  -27.79628699   26.81567443
    8    5.18202358   -2.16690774   -6.27840101     -4.58277413  -32.43515981  -28.49886234     -2.41665654   -1.63932744    3.81157203
    1    5.25369137   -1.88857893   -5.32450029      1.85509153    6.81155591   34.51180227    -21.07001201  -23.78760603    3.13366580
    1    5.20044514   -3.22242676   -6.25184016      4.12239787   21.54719294   -4.76889924    -15.99946808   51.89449077  -22.01237553
    8    6.18380662    8.78184395    2.61032751    -28.95834807   -9.48841581  -39.90328398     -0.73608559    0.58735879    7.03439510
    1    5.50359548    8.61555033    3.34723070    -19.66343302   -9.68515496    7.27960693      7.84925660   44.09882048   -7.15621905
    1    6.92554900    9.17438120    3.11198797     44.97673181   22.12690973   26.75900292    -27.79085433   12.03681888  -14.84098292
    8    0.39062858   -8.73600260   -6.60645107     13.30444077   22.04981053   12.10704840      8.47934753   -2.84202748   -0.00875505
    1    1.39480177   -8.56383226   -6.36647747     -8.62703453   -9.01401510   -4.07237888     -1.25152240   -5.30743482   14.54729993
    1    0.38405345   -9.50880205   -7.25931097      2.00944555  -20.79262822  -12.26576239      6.93446254   27.33324530   21.29938266
    8   -1.06775771    4.39871140   -4.93511524    -10.91709642    4.56690088   -0.36905346     -1.24255653   -3.97806185    0.90085505
    1   -1.08586457    5.34708958   -4.54894509      1.01240330   -2.04499660   -2.17906789     -6.25951059  -46.96751957  -23.75340048
    1   -1.97934553    4.29607684   -5.42677491      4.66087602   -6.22992487    4.53514689     39.28465544   -6.74301992   28.49830969
    8    4.66749347    2.38728980   -7.81668656     13.98737845    6.73430821  -15.00834465     -5.57376375   -4.81604793    0.31221022
    1    5.24145391    1.53410553   -7.90365840     -3.70688557   -4.03689203   -1.09005778    -25.61268770   34.74472872   -5.17382621
    1    3.70049148    2.15045069   -7.59190375    -14.22109837   -7.46594436   -2.11618025     78.86410384    0.45357090  -14.21360030
    8    2.79711217    5.77353533   -3.25616490    -14.43538224   44.68870881   17.40374391      2.46864011   -0.34472922   -4.05282027
    1    2.97996257    4.86283798   -3.62952949     12.00055835  -29.73965621  -20.92903045     -7.93629077   33.71012718   15.34831932
    1    3.10323475    6.54893708   -3.90381270     -4.35732805  -18.38006170   -0.32546565      2.00375394  -18.65671615   19.82384415
    8   -3.06747765   -3.14043403   -7.34926635     15.56168992  -57.89649338  -17.63706186     -1.03825535    3.75057784    0.00504637
    1   -3.97795253   -3.45320454   -7.74117160     -3.43483040    3.60002661    2.37619037     28.89696118   -0.84768727   22.64647066
    1   -3.19348761   -2.22870348   -7.04504165     -7.81583419   60.70832305   17.44073968      2.84123787  -19.61875159    1.83832884
    8    9.91783507    0.91394745    5.39599745      6.91317099   -3.59775571   -6.86500425     -0.89903293   -2.02525765   -1.45125546
    1    8.90825562    1.08014268    5.53657321      0.16721689   -5.59241367   -5.73201166     55.45419500    8.13482484  -29.59048058
    1   10.03146286   -0.08495789    5.07599949     -8.41697588   11.42324389   11.67482251     -4.49641820   37.17328356    2.62361393
    8    7.00947375    8.95250657   -8.16561981    -17.97277141   -2.62308665   -3.41204066      1.98270149    8.08118872    5.04908638
    1    6.93388536    9.81011324   -7.58544501      3.51516215   -2.78327692   -1.03711717      0.61439349  -12.55149781  -15.18377716
    1    7.51544690    8.26199191   -7.61277607     16.02171975   -1.00515108    2.00581513      4.36234658  -38.62787243   -9.65269168
    8   -3.06284731   -3.51887319    2.78057592    -93.31629322   -8.76281128  -52.61363530      6.34620975    5.74327732    0.98723526
    1   -3.44954897   -2.64608172    3.12733952     -3.13073966   16.47584390    8.79723657    -16.07333916  -15.98332033   -8.19581309
    1   -2.21763217   -3.59550749    3.17017695     94.91455056   -9.04955130   42.99405369     -9.76743178  -19.68769068  -24.23187241
    8   -7.57339881  -10.02278882   -8.56776837    -25.34997243  -36.20266304   49.71209067      0.10898339    0.05996290   -3.38657828
    1   -8.29716715   -9.70837685   -9.15453329    -45.00092298   22.22309576  -18.61172696    -32.05544347    0.47741764    5.23028649
    1   -6.83090549   -9.87911174   -9.13587723     79.14071874   21.45417698  -37.74532963    -39.28837447  -35.87197994    6.72183708
    8    8.73076243    3.87551578    1.51566998     -2.60333400   -7.22054811  -26.50133612     -4.11949605    2.67168530   -1.39045544
    1    8.47856976    4.60480538    2.14564769     -6.75341621   13.43926381   22.05948554      9.18633306  -13.10691696   11.57045031
    1    9.28204370    3.14591648    1.95712026      7.46427820   -8.49464738    5.92692171     -8.20975195  -27.96644301    8.99176001
    8   -8.17241134   -3.78507548    7.24376962    -22.65656422   37.98506231   -3.45435934      7.03335371   -2.17305285    1.69595734