 BEGIN_INFO
   #
   # This is a XCRYSDEN-Structure-File
   #
   # aimed for Visualization of geometry
   #
   # Launch as: xcrysden --xsf .HICOLM.XSF
   #
   #
 END_INFO
 # estrutura final
CRYSTAL
PRIMVEC
      20.73118797       0.00000000       0.00000000
       0.00000000      20.73118797       0.00000000
       0.00000000       0.00000000      20.73118797
PRIMCOORD
  927    1
    8    4.81098323    3.07604607    1.91958357     -9.47893828   -7.52863731   13.60349821     -1.26688153   -3.00623797    2.21022052
    1    5.04818464    2.95611063    2.84932321     16.87026631  -18.86038679    4.47412544     -0.17891504    2.70920038   -6.02424265
    1    4.54444451    3.97184734    2.11164325     -8.35514220   25.99282265  -13.94930085      6.90987111   -0.63958777   -9.79235353
    8    9.26791857    7.41499041    0.70604499      6.32773267  -16.56410687   15.55947061     -5.67486953    3.72107110    1.83734562
    1    8.51387936    6.84392614    0.97048729      5.33426962    4.46497393   -1.55236011     -5.68387002   21.73326735  -10.52916828
    1   10.00671575    6.99308571    1.22847831    -10.32162036    7.83526587  -11.61251167      1.73348316   14.39515292    0.75507931
    8    9.98607286   10.00921145    7.29122341    -29.11359855   14.43933215   39.90017291     -0.40639476    1.07807823   -0.07364018
    1   10.01371298  -10.12429545    6.51967309     -3.81435897    3.77961053   -2.77834956      8.23666838  -11.97661564   -8.60492078
    1    9.26188229  -10.28488764    7.88433139     25.24474742  -15.59078501  -32.36217923    -17.31407095    3.10346647    1.86336226
    8   -1.07684536    6.80265916   -9.31964621     15.73288893   -8.02385669  -25.16059978     -1.05395368    2.18043266   -2.21812949
    1   -1.59337885    7.03982918   -8.55482631    -10.68816108   -1.33376646   21.07559550     13.82040299  -13.15097188  -12.22038176
    1   -0.39185798    6.17662028   -8.97152119    -10.44473183    7.82904767    6.90205288     20.06251268  -10.85032639   -2.21329051
    8   -9.20532528   -8.85765714  -10.30043791    -44.43071048   61.13244607  -57.24270107      0.56045877   -2.21723750    1.31722637
    1   -8.99634746   -8.34050513    9.51723597     -6.61641566  -33.98829822   75.30254240     16.57758544    7.56918655    3.27794617
    1  -10.11424092   -8.42780108  -10.00937925     51.10610635  -21.95535826  -17.34933381    -27.22448872    1.29122874   45.20024450
    8    4.65980279   -1.82978918    7.20391945     -1.92479099   52.15902205   24.95214583     -0.67278019    1.71380064    0.39083325
    1    5.37935358   -1.16566791    7.38552206    -14.07541974   -8.89953147    0.20231705     10.27363635    0.21268394   -3.84619998
    1    5.15901767   -2.38461974    6.66616151     17.52025474  -40.76900790  -29.33975515     -7.69067309    6.00274099  -13.94822102
    8    3.35141311    9.67353893    7.51828651      5.38601586   11.87820476   22.93397834     -6.01379463   -1.71756001    2.00016381
    1    2.55880643    9.87304906    7.01933323    -14.30370332    3.30715669  -16.17631399    -10.75497918   -2.70984194   -0.57710277
    1    3.19724433   10.33472509    8.23481514     10.18333438   -9.52115692   -6.44098845     -4.34857428    3.28018004   33.32143151
    8    3.39302927    7.39854854   -5.14190742     13.17647568   28.43656409   16.06067820      1.04014852   -0.89907683   -0.34833992
    1    3.69505236    8.29464080   -4.78109682    -10.93892001  -24.64366079  -14.58145360    -21.88393915   32.79588266   16.40752719
    1    4.00898369    7.29791538   -5.90889614     -2.51358621    0.14060476    1.09446759     -7.88997109   -6.94073578   10.63309308
    8   -2.70088388   -6.14377230    9.40156472      3.08105109    5.61965442   -2.12900938     -0.73458334   -3.01135229    0.29764711
    1   -2.50067562   -5.25567244    9.77654120     -5.98311764   -2.85479187    3.19312656     -0.28583578   26.42190430   46.01496803
    1   -1.99057870   -6.65894798    9.83663980      0.70321125    0.78058891    2.74042960     -5.36842045  -13.90271720   43.70944379
    8   -2.43558545    1.90212447   -7.54177162     20.14635348  -37.19121016    0.23714019     -1.36563390    0.48958427    2.20598337
    1   -2.77025200    2.64258293   -7.06277777     -9.77040920   25.32919339   17.86176982     -6.09592925   -2.18950687    8.95255911
    1   -2.86195052    2.02783536   -8.39076615     -9.67301474   10.38132884  -16.04144695      1.00071152   11.33745954   -7.63393099
    8    1.39367277    4.87475346    4.63027616     11.46823547   25.51024646  -41.44424407     -2.03929003   -0.35438116   -1.31014554
    1    1.59404671    5.59521955    3.93775475     -3.04708598  -15.86819152   27.72685956     14.23845053   12.05255242    8.96284307
    1    1.00876644    4.26498810    3.98451429     -8.64672434  -10.94799970    5.12369178     13.92371034   20.19029452   31.91931014
    8    7.35056018   -6.39896536   -5.12923184     33.10368995   46.71697750  -12.11188849     -3.97899737   -0.88218739   -3.16201074
    1    8.13850574   -6.67687868   -5.65223992    -13.02230581   -0.75111656    6.05812711      2.30650474   -0.48954041  -21.42282402
    1    6.99889930   -7.20654498   -4.83972032    -15.20339884  -46.17066528   12.89256095     -5.25163362  -14.66593434   17.39310121
    8   -9.00223889    8.56467093    3.45808612      1.57903451    3.98731704   22.93891596      3.91017764   -1.54377281    1.16021620
    1   -8.79327579    7.81322117    2.89560168     -3.91614262  -15.23411947   -6.28870513      0.75261698  -11.39699678   15.79492695
    1   -9.32901852    8.11660573    4.28904196      6.71215125    8.87567876  -11.52147407    -14.17831665   22.42186851   -4.68367292
    8   -1.85272736   -7.88930862    2.89504664     24.46322100   -6.34580936    2.73781163      0.14940954   -0.21834650   -1.77419828
    1   -2.31197289   -8.56439428    2.36574559     -9.76864736   -1.72896531   -3.52386502     -6.49804496    8.83588608   -0.72139333
    1   -2.57455335   -7.31471418    3.14073523    -21.96311364    9.93074044   -5.90619758     -2.61011075    2.95596773   -6.66984610
    8   -1.42403035    3.57783141    6.67810449     38.89856825  -21.28533890    0.05876985      4.78846109   -0.61140561   -1.97148325
    1   -1.29578378    4.17345904    7.44164003      2.88885508   -5.76760585   -0.29130003     -8.75651923   26.57012595   10.98362463
    1   -0.56086836    3.00542246    6.64861714    -41.45882034   30.04968195    1.52337396      2.94067044  -25.88361294    9.91902868
    8    2.90065441    0.97875645    1.53211814      7.70984029   16.31138906   37.04287653      0.99540279    3.11163993    1.75549584
    1    3.49326238    1.77333662    1.65263772     -6.95453422  -16.28794552  -10.23099754     -3.98097093   -6.23275827    7.02364226
    1    2.76223063    0.94972050    0.59418595      1.06480019    2.85889577  -29.28958289      3.29356297    9.05946044   -0.43730154
    8    2.16790929    1.98110873   -8.05028480      1.81149702  -24.39022314  -14.71532007      0.11929744   -0.19029725    0.54654227
    1    1.45719382    1.49329593   -7.60778435    -13.83952156  -11.38728817  -10.47600352      8.51750834   11.71529779  -22.84188023
    1    2.31940000    2.50329756   -7.30699968      9.95460233   36.47448963   28.43838896      9.70132193   -4.09304085   -4.10571620
    8    6.12421869    0.01383419   -7.77401480     11.57071901    2.39172850  -43.09684838      0.83733095   -0.88998629   -0.16082205
    1    6.43031035   -0.56140289   -8.52431960      7.51036409   17.72444543    9.41691770     -0.74867948   28.23467993   10.80745083
    1    5.75892202   -0.72260301   -7.30643036    -15.03677090  -15.71783545   33.06138787     14.02078759   -5.81417819  -33.89832174
    8   -0.47796987   -7.12579138  -10.04579855     13.23763077   29.07038099   11.83345215      4.15101378    2.47831582    2.34120431
    1    0.42411327   -6.88543890   -9.66094838    -21.05137287   -1.52357782   -6.67802998    -24.55304102  -16.37373811  -33.95115203
    1   -0.29162059   -8.01011170  -10.32746069      7.64131435  -28.86423087   -8.93116946      0.63621435   11.41454602  -11.49892569
    8   -4.33416071    0.34111308   -2.62392629     14.91041605  -41.67905870  -31.21949778      1.00850286    0.40614041    0.44892358
    1   -4.15268720   -0.46690445   -3.25597796    -12.06657411   42.17392264   31.53223451    -13.65555816    0.30566932   17.38959610
    1   -3.49714432    0.35340117   -2.13352183      1.25857675   -3.13828644   -1.80909850    -32.91289033   17.52497333   -5.87760934
    8    6.99734364   -9.89759631   -6.70210531     13.17634975   -0.20068814  -10.15831996      2.92025934   -0.92704503    4.52442232
    1    6.59438383   -9.52909635   -5.89363185      7.97479062    1.72152037    3.25154510     22.20065946    0.62964208   16.41792821
    1    7.95906103   -9.60864872   -6.65063888    -22.40381823    3.89285172    7.00503703     -7.64467902    0.18730057    4.15823232
    8    1.23049556    3.72559147   -6.00331128     59.05474773  -35.72881526  -68.91294259      0.12688325   -1.79667294    1.46813005
    1    0.56794417    4.06379800   -5.53669769    -68.48473469   33.06686185   48.81572730     11.97383865    7.01246541    0.22031706
    1    1.95071283    3.68180948   -5.39570182     20.52371588   -1.25277521   20.04553496     -5.78551613  -12.25205019   -2.63205899
    8    6.22382541   -0.42377563    2.98259222      8.76919281   -0.02751090  -16.71646967      0.46587720    1.61700783    2.18902483
    1    6.70218630   -0.04246730    2.18933627     -8.58353050   -0.78326299   16.42195125     -8.09765711  -11.95146586   16.74571158
    1    5.34532250   -0.58816962    2.58766460     -2.73106319   -4.97389970    4.13827398    -22.63402276    7.13569068    8.28420704
    8   -5.22793823    1.81176750    4.84060246    -26.44197756   -9.64552206   -6.37775453     -4.07564540    0.32791397    0.21335165
    1   -4.89536350    1.39165243    5.62617055      2.89578198   -7.34784368   15.47237245      5.34615740   -7.91838744   -6.87648273
    1   -4.43367199    2.26572067    4.61935356     21.59938331   20.40324919  -13.70914123     34.79154803   -1.08370028    5.37342516
    8    2.61129778   -5.73316519   -2.98589387    -33.98896773  -25.81040111    5.81404874     -1.84349139   -0.11949132   -1.26963191
    1    2.20414490   -5.26372558   -3.76108313      1.23333953   -4.69996721   10.65287703     13.61299755   26.34462194    7.34370313
    1    1.83355255   -6.33387265   -2.66133380     29.87867570   38.60577154  -13.19680174      8.78383197   22.80700976    3.55070962
    8   -4.00354330    2.69379634   -9.59587915      2.97651643   -5.09083835   -2.73111864     -0.19001662    2.65090271   -1.96617773
    1   -4.11670195    1.99468278  -10.27184766     -3.30245206   -5.66573645    0.32418016      2.06264446   19.59540040   -1.88746400
    1   -3.79738693    3.44301898  -10.17804153      3.79214690   12.14133755   -2.03619791    -10.98474838   -4.90948389    7.39731840
    8   -1.13258787    7.97803228    3.62813769      0.38298089   -9.92900042    7.28055153      4.77687266   -2.22817728   -3.96470905
    1   -0.50870971    8.67308031    3.53896197      9.10327159   24.67248037  -13.56096678     10.83161452    7.28806036   -2.55994871
    1   -0.81070606    7.64324115    4.46886236     -3.70099465  -10.57361142   11.61921208     -1.44475668    2.24124069   -5.59868385
    8   -8.83647486   -5.42387499   -1.93057763      8.53430524   30.59517096   13.92339234      0.75513108    2.13082817    2.70350188
    1   -8.93352926   -4.70523467   -1.23765187      0.32222322   -1.19124745  -20.02402159    -14.78876476  -15.13316909    4.35633887
    1   -9.29133444   -6.09091985   -1.40490529    -10.04933967  -23.13275829   -4.50581219      4.67290084  -14.49344587    7.21385996
    8    2.52324686    6.07343258   -9.93098181    -19.75952444   19.00117860   -9.58121832     -0.28457037   -0.59806449   -2.01789066
    1    3.25814632    5.48272429   -9.72316384      2.09426597   -6.05734239   14.54720806      9.99214579   27.02171556    3.95376787
    1    1.83370859    5.94645504   -9.21356890     21.14661636   -9.03137837   -8.04109325     -5.10043519   -8.00294278    8.69315428
    8   -1.37913864    8.89270496    9.78390464    -13.89871779   46.68292160  -58.23792182      2.92090509    0.16927131   -0.33599159
    1   -2.30880038    9.22987983    9.93532802     16.89198367  -15.59415033   13.81272850      4.44244559   16.61036079    3.70463655
    1   -1.19958219    8.26604881  -10.28806660     -3.99442854  -31.13154280   38.82956308    -11.59278459    1.59972854    8.57811289
    8   -3.51101927   -1.70678604   -4.42143453     17.29403491    3.22288117  -34.72139967     -3.44925459   -2.52151202    2.16297111
    1   -2.51790523   -1.72189638   -4.34376126    -16.68543541    3.63396246    6.90087832     -5.15958623  -23.67136855   -3.96586461
    1   -3.56277808   -1.46049881   -5.39586779     -2.10145222   -0.45453022   26.86077209    -15.72961428    5.55999016   -4.25640676
    8   -8.73080846    2.91350496   -8.05912250     -0.80706165   13.04999588   16.25267026     -1.99174819   -2.88179869   -1.43339078
    1   -7.77846618    3.21719286   -8.04396316    -13.98648350   -1.66008514    6.22074980      9.31582445   -3.46611055    7.57869336
    1   -9.13052968    3.33041423   -7.21610477     18.52055032  -10.70804926  -24.42844583    -24.24187555  -11.46378224    2.77928917
    8   -2.38108120    5.67314311    3.18530928    -22.56620667  -58.71589250  -16.74645954     -0.17428625   -0.55049961   -0.95748808
    1   -2.01924261    6.51881159    3.34436544     23.54489962   40.48086274   -1.08990026      0.87347323    4.04093075    4.87170953
    1   -2.01477584    5.37679065    2.31187922     -2.32504905   11.47166944   10.95144197     -6.34088936    9.57291752   12.44166192
    8   -5.17058324    5.77692635   -7.13556223      0.78153962  -17.37024514   -3.24475090     -2.45404878    1.06202081   -1.50344068
    1   -4.38795022    6.29053825   -7.33266552     10.86522425   14.61198219   -3.64188911     32.08166026   21.70775282    7.19860935
    1   -5.62494461    6.31663845   -6.47700830     -6.51617162   10.48966047    3.63087463      0.66173221  -16.15277999   17.52119174
    8   -0.99623215    8.99364466    7.06620660      7.70459450  -33.43790759   11.59549414     -0.14393698    1.83530082    1.25598491
    1   -1.11428622    8.94584029    8.06044225      0.07334366    2.64112284  -18.37511186      0.93471641  -10.34099852  -15.83311320
    1   -0.80167095    8.01826449    6.86462211     -5.52460319   33.73720920    2.80529355      2.14569159   37.24124820   -4.38758174
    8   -9.05429775    6.32617207    1.91122995     -4.54432551   17.39252892  -11.67819856      2.01343776    1.59422984   -0.91614030
    1   -8.20499457    6.36827531    1.41826394     -2.46192870  -11.43777765    8.26354572     -8.48423018   15.29864803   -1.01912519
    1   -8.94465303    5.62653740    2.57455247     10.27675967  -10.09591772    1.61645236      7.16747520   11.26583664    5.91628726
    8   -3.80236969    9.55074053   -9.85042527     -2.06181761    6.04948534  -21.06524224     -2.48929424    1.09824241    3.35949139
    1   -4.38182415   10.33984760  -10.04296297      6.90188508  -13.07086891   10.13675194     -1.09697939   20.86101953  -12.67146879
    1   -3.78449803    9.49988839   -8.88453700     -5.36083613    6.13719238    8.88612542     -4.26076345   -4.58115087   12.78788799
    8   -8.99905776    9.44116671    9.22920636    -22.27490228   24.10357728  -20.69787683      2.57038118   -0.55095899    1.53615797
    1   -9.71537971    9.53821258    8.52667511     19.44403113  -14.55024014   13.13299250    -13.15279817  -11.60004102   -2.52252000
    1   -9.13360960   10.34823161    9.59692779      8.63604835  -10.50129061   11.94037795    -10.87255556   26.56046625   11.22064311
    8    0.47234529   -1.07824159    4.87923886     -4.67885080  -23.93499651   -0.47301541      0.38332487   -3.71680591   -2.81033227
    1    0.53230067   -0.30308229    4.32259007      6.95053218   12.06765828   -2.06156143      0.59322143    2.55182912   -4.59807997
    1    1.23453138   -0.98533165    5.49109096     -3.29043311    5.42867647    0.02589447      5.85315535   16.57561566  -18.18627191
    8   -4.55033841   -9.30561312    6.69536928     24.56330787  -40.19889433   -2.26180871      3.73229990    1.29846620    0.54130202
    1   -5.31577098   -9.80571524    7.01556706    -12.72024461    3.64950784    4.26080656    -24.92224397  -14.73008755   -2.75320350
    1   -3.97859861  -10.14281102    6.53432963    -17.84992394   38.39544054   -2.41384387     -4.37424789   18.07236017   -5.67543584
    8    0.33399894   -3.79264105   -9.00023200     15.15459143  -47.16363476   -6.89027535     -0.79016566   -3.32967943   -6.91432464
    1    0.51744252   -3.03900524   -8.47035647      9.32600236   27.90009296   21.89917027     -6.39871275    0.07745202   -8.25012494
    1    0.84720813   -4.51699968   -8.53326095    -18.37206590   18.80890277  -13.75841737      0.32410587  -10.37699778   12.49136209
    8    1.97110226   -4.99780172    5.57998426      5.11586129   -3.98581873   -8.08646633     -0.21101476   -2.48746715   -3.04155046
    1    2.45686687   -5.08342904    6.41262873      8.64637170   -4.92610367    6.17697332     -8.26913572   -7.78096990    8.09759569
    1    1.25634909   -4.45575495    5.90621023    -14.42549159    7.97291227   -0.96111173     -5.94840360   -5.37914159   -1.65035305
    8    5.13105285    0.47234133    9.73960688    -32.91187368  -13.86178827    7.37299666     -0.65610467    1.78702109    0.06596545
    1    5.55119280    0.19234563    8.92419815     14.52612743    3.75309624  -11.32843521     13.48500036    3.66291551    3.73476146
    1    5.79206079    1.00485639   10.17851010     17.10575600   12.76104856    2.24352773      5.08991318  -22.55093809  -31.46674510
    8    8.89070781    1.22050683   -4.21927950    -19.88698348  -17.93843956   26.48227302     -3.98240171    1.13516519    0.39077353
    1    8.43660693    1.44540499   -5.07543897     -0.28355876   -9.74151638    7.83014778     16.97106759    5.48721315   15.53799345
    1    8.21595224    0.59761031   -3.73433978     23.96326831   32.35429812  -32.77834377    -21.72352707   10.35250066  -10.53320424
    8   -9.83231217    7.83622259    6.04231585     -0.42733438  -12.97771975  -27.22153166      0.36748470    1.77534695   -4.02888855
    1  -10.13984765    8.62990069    6.47565511     -7.51458598   18.15926922   11.48475796      8.57426368   -3.14397141   -0.25982179
    1   -9.29140225    7.46087281    6.74325206      6.61542680  -12.65210640   11.35180659      7.58904828   -0.86709058   -6.32226766
    8   -8.36345525   -2.46238703   -9.32726864    -25.43310876  -23.87872771  -27.49563958      2.28733798    0.43967896    2.82402008
    1   -7.70699458   -2.19625206   -9.99204026     10.02655798    0.67524854    4.50222601    -11.04922370   -9.90993133   13.48988657
    1   -8.00892903   -2.15500987   -8.50976025     18.38939479   17.21966012   22.00804465      2.84939829   -6.03935515   10.68277264
    8   -7.73914538    4.87566150   -3.93691319     13.88650578  -28.15876578   22.55316068     -0.44957500    0.69822731   -3.37186026
    1   -8.37430630    5.31466978   -4.51495368      8.07298825   22.46835414   -2.04705970     24.09145538  -25.05867995   11.27971995
    1   -7.01782752    5.49889238   -3.67911872    -19.93820098    3.75873361  -10.85349019     -5.95072952  -23.55066528   -7.97589559
    8    6.16313233   -8.65523206   -4.21356657    -11.77588062   48.46618708  -39.48015705      1.07620761    2.31520883    2.07435206
    1    5.39336515   -8.30327959   -3.71099763      4.34414503   -7.57547788    2.06175100     -8.70959723   16.72609567    5.69297406
    1    6.36188029   -9.42410695   -3.74716780      7.00094115  -41.72046355   32.92245153      7.03932837    3.89282699  -11.50355024
    8    3.55109876   -2.49990963   -8.68764533     59.98615233  -24.90216844  -16.55793722     -0.70098233    2.42685268   -1.26497450
    1    2.74097582   -2.14982543   -8.45795163    -51.57216805   27.01924438   20.01857024    -15.93494360    6.92096631    5.34659779
    1    4.10545129   -2.30103418   -7.90623823     -6.67384048    2.43393915    2.74018985     20.59162088  -16.10735999    1.73089883
    8   10.30084350   -4.27913894    5.82209926     39.72017077   25.14337721   42.86380150     -2.37860862    2.86568312   -1.65181881
    1    9.76614870   -4.97749457    6.17330006    -18.43567846  -18.72963663    9.61353249      3.22477162   -3.76897664   14.87435777
    1   -9.76479555   -4.20782111    6.61476580    -23.25473091   -0.38642573  -47.13804726     11.75356250   12.27920249   -5.73445902
    8   -0.98167027   -0.76845602   -3.82557515    -12.19412287  -40.03329145   20.57074587      5.59436068   -4.95872444   -1.99973532
    1   -0.83588865    0.14459350   -3.97374937      4.58703766   35.88633370   -5.70771998      0.29760596   13.60345928   21.99344582
    1   -1.32591937   -0.77503139   -2.87461171     11.18371469   -0.13009362  -22.04694380      6.98138788    2.47582981   22.02241576
    8    0.26247319   -6.47417982   -1.81627793    -72.90486564    9.13785399  -36.51766285     -5.65994045   -2.30220141   -2.20115202
    1   -0.47900315   -6.59865768   -2.57516997     54.44547686   14.38917073   54.47299057     21.32122921   -1.00332228   16.38773998
    1   -0.19135739   -5.76429629   -1.24010889     14.07159812  -27.29282826  -21.79715585      0.37473788    8.86636405  -21.67896062
    8    2.91677462    8.21600862   -0.07799799     -6.66624770   41.83974958    7.26712470      1.80933129   -2.53045573    2.11828269
    1    2.07800769    7.89820891    0.32804427      5.20151159  -10.44863086   -6.42725649     11.33206821   -2.85876100   32.11265038
    1    3.42295424    7.45473729   -0.33692202      3.72912388  -30.38442471   -1.46470358    -15.88389438   28.71960704    7.59365267
    8    0.56563819    5.10810293   -1.56861012     -8.41285481  -35.56801171   44.46573252      0.31316538    3.14000573   -6.02721383
    1   -0.28379554    5.44325455   -1.87056428     -4.43456152   14.50719064  -11.79299867     10.80565432   -3.71085078   17.31330576
    1    1.24799110    5.49507375   -2.09235151     13.67734748   18.61786866  -30.17607767      2.44815034   11.04150437   -5.96353727
    8   -0.34048469   -7.92966633    5.15601520      3.82650849   13.92216457   44.87770957     -4.63474990   -1.90268301    1.47045798
    1   -1.05843485   -7.95866617    4.53418990    -14.72182834   -2.44580953  -17.78604811     28.43123643    0.49518092   27.66298831
    1   -0.72799644   -7.36502144    5.88836015      4.72592734  -11.23501932  -17.83507320     39.83786502   -5.62982869  -24.73309659
    8    6.29625378   -7.57052387    3.22877527     18.07986558    6.45405207   -6.55312763     -3.98690559   -1.46324111    2.49516662
    1    5.83906377   -8.24883822    3.76113410    -13.47897195    0.57725120   -8.02708443     12.74252446   12.23941393  -36.47522874
    1    5.93684439   -7.65360211    2.30648829     -2.29807713   -9.65790339   12.84703638     10.77343289   -0.16867774   10.56815454
    8    8.65205813    1.57824461    8.45673876    -17.36332577  -65.22829180  -19.65333385      5.12146437   -2.23307602   -4.94205805
    1    8.11798451    1.88657495    9.16446250    -24.87467031    8.89034048   28.31627229    -10.86888005   -9.67242255   -4.68210519
    1    9.19449545    2.28866468    8.39766638     45.19140397   58.91559879  -12.05393151    -10.94495511  -18.15446220  -18.35278361
    8    3.75934276    3.62406804   -4.67678363    -66.52597313  -10.06281452   44.29491937     -1.78388347    1.21012130    3.20261135
    1    4.43883289    3.90639369   -5.22661416     51.80354610    5.10259810  -24.81243171    -21.25305091   -2.39762533    6.38634297
    1    4.16802187    3.12158431   -3.92983172      9.49530251   -0.33866084  -15.76643211     -3.21346256   -8.83393276   -8.15346728
    8    6.45048994   -7.98971647   -8.78942268     -2.74300199   11.18709167   -6.66984441      4.23117400    1.94827234    0.04568149
    1    6.51313604   -8.51602234   -7.97675173     -3.28930774   -7.45422215    0.78374576     14.52433103   24.92822378    9.44366154
    1    5.60013690   -8.26998701   -9.18347181      1.80971336   -8.30885170    9.32435763    -13.28027456    0.08242103   20.35030745
    8   -4.38761184    0.73093220    9.30529450     14.62395098   22.13117916  -48.63122049     -0.88254197   -4.04228142   -0.66722601
    1   -3.96981739   -0.14816081    9.45731815     -1.10709073    8.80019922  -15.11335899     -3.86515133   32.81653651   18.60816900
    1   -4.05873285    1.06570555    8.35794948    -10.36507825  -35.23111355   57.57749032    -18.21412124   30.00217965   11.76817639
    8    5.28725242   -2.09417797   -6.36533199      2.27984550  -34.37562362  -40.25253742      3.42164679   -1.60012022    5.62035631
    1    5.30384798   -2.02987928   -5.40827386     -3.30738983    1.30669085   21.21694953     11.97376206   14.16348622    3.52998151
    1    5.44485248   -3.08757040   -6.47594395     -5.90204218   28.14163885   10.36455131     23.39501676    2.19626020   25.34139988
    8    6.01099461    8.87494333    2.51577570    -21.61530789  -15.80154363  -38.96332763      3.55280328   -0.46844188   -3.64989587
    1    5.37427140    8.33306330    3.05372285     11.74378807   16.10805881    7.69826877    -15.98415053  -20.97080779   -1.94233176
    1    6.58155095    9.29185169    3.14402822     14.55958886    5.41145871   25.42931599      0.55751598   12.72932544   -4.68531671
    8    0.13646488   -8.83039195   -6.76742890     26.99699127   -1.15841038   -5.38166730      0.76419909   -0.19031274    0.73446253
    1    1.13822778   -8.75175600   -6.68233987    -22.82924606    0.24979507    4.44260288     37.69306022   -1.55563780   12.54503817
    1    0.14184114   -9.61040094   -7.35222707     -4.22437827   -2.74316101   -0.38929810     -7.76264363   -9.15796668   -1.41675482
    8   -1.08444127    4.68502531   -5.04820924     33.43818977   22.36977280   31.27739576     -3.93775389    2.88313657   -1.03992078
    1   -1.38220207    5.56912146   -4.70792262      0.46486113  -11.62198460   -9.43532230     -0.92194700   -5.16300478   -8.92653452
    1   -1.88825338    4.31686628   -5.36360348    -34.54138712   -9.77175558  -15.36952235     15.80793230    3.58997583   -0.38740518
    8    4.89048426    2.47267915   -8.22846315      9.22802350   22.33227524   -6.91255455     -0.55804774   -0.25227560    2.44890681
    1    5.28560545    1.63023529   -8.06510524     14.25472565  -28.04286013    5.79633661     11.38328371    4.33766999    4.72679443
    1    3.97964128    2.22464100   -8.31002748    -24.82497678   -6.77309295   -0.25642042     32.76770967   -3.98859774   -8.21828993
    8    2.70108818    5.69898200   -3.18045659     -0.00058462   35.47875615   -0.46797908     -3.99204865   -2.74497859   -3.30649951
    1    2.88143348    4.89509858   -3.65469758      8.10567025  -17.58633703  -16.07695170     33.94865262    8.30159367    3.26722888
    1    2.93928026    6.39231620   -3.88403087     -5.89316146  -20.13889529   17.66513230      2.89755264    6.41163862   -2.18559350
    8   -2.86433011   -3.11570428   -7.49499691    -15.01273403  -35.04507944   -4.91131609      0.44606861    0.66139605    3.40508553
    1   -3.80322860   -3.38762661   -7.70026131     16.77099839    6.99656845    3.41611820     14.38150762  -16.05548273  -14.33803818
    1   -2.95255810   -2.18470921   -7.32756418     -5.97758401   28.69033533    3.85020662     -2.32536628    2.71544976   14.94709524
    8    9.97369066    1.07335198    5.41255221    -24.78808728    3.73840080    0.49698705     -2.12484654   -2.38341354    3.94976971
    1    8.97736027    1.07456944    5.30978453     17.76388990    2.46590783    2.43458024     21.94887468   -5.17031548    4.97640080
    1   10.10105199    0.11588390    5.40315094      3.29652691  -11.82676160   -5.59012130    -14.97794779   16.39426445    0.72355538
    8    7.01643984    8.77154929   -8.50688039     17.30361461   54.95349893   78.12491433     -2.71424311   -4.85084981   -0.78897779
    1    6.97249518    9.62519442   -7.88007413     -9.46840351  -49.23259180  -48.94714828    -32.33804698    7.85130463  -14.97682812
    1    7.69974049    8.34703450   -7.90876317    -13.41705768   -7.50815088  -19.99734548      3.99672968  -25.09983500   36.69875447
    8   -3.21343807   -3.74876660    2.84012919    -24.60774680   20.30653978   -5.91018963     -2.38711527   -3.84278364   -2.68008030
    1   -3.52126302   -2.83440562    3.04892240      0.42671157   -9.05244251    3.47001754     -8.59268019   30.80555042    3.31205626
    1   -2.39908686   -3.74091138    3.33200374     22.08016014   -0.80800980    7.39324322     16.08921127   25.42443642  -12.21229558
    8   -7.45012437  -10.04361447   -8.56163212     17.37218465    9.84528373  -18.16053407     -1.26467567   -2.74760529   -0.37176892
    1   -8.09226961   -9.57743055   -9.13049164    -12.36843385    0.25445912   -0.26663335    -29.90178637   26.26896282   -6.23538208
    1   -6.65335952   -9.77634778   -9.10841690     -9.90549706   -5.72959461   17.54895467     -5.97952504   17.42968140  -22.85614522
    8    8.95817641    4.07182905    1.53433636      0.58758113  -17.65936139   59.65404561     -0.12646804    0.54480483    0.28886476
    1    8.62248391    4.28185551    2.48557208     12.50841812   -4.96973528  -43.16333283    -28.55795403  -13.55404125   13.68662417
    1    9.48057991    3.23089606    1.72195162    -15.41346139   20.34383541   -6.15540245      6.83530219  -30.99459086   -5.66390204
    8   -8.15424849   -4.09950473    7.28774295     48.48394531  -14.95808301  -27.15264597      0.52788291    4.25401630   -4.21130253