 BEGIN_INFO
   #
   # This is a XCRYSDEN-Structure-File
   #
   # aimed for Visualization of geometry
   #
   # Launch as: xcrysden --xsf .HICOLM.XSF
   #
   #
 END_INFO
 # estrutura final
CRYSTAL
PRIMVEC
      20.78400715       0.00000000       0.00000000
       0.00000000      20.78400715       0.00000000
       0.00000000       0.00000000      20.78400715
PRIMCOORD
  927    1
    8   -1.95627840   -7.87695928   -5.81150381    -16.04727082  -37.03327601    9.94137978     -1.02165042   -1.32643868    1.50537089
    1   -1.76263877   -7.19086372   -6.43326920      6.61440774   18.32644922  -19.95978436     -9.49006708  -20.27228373  -17.80256347
    1   -2.25985075   -8.58151892   -6.45970311      7.72998463   20.31213672   14.52678451    -16.93076338  -10.90628029  -10.78324305
    8    0.79034344   -3.70073777    4.04596831      5.17149816   16.47742081  -25.24343701     -5.01909559    1.12746041    4.95568795
    1    0.39072261   -3.41719599    3.18301900      2.97075078   -8.30419350   18.83729571      1.37184077   26.03247807   -1.71886170
    1    0.97278073   -2.81977644    4.45316668     -3.67888834   -4.39652643   -0.03131424     -4.99319591  -31.38449734  -12.34203906
    8    9.81605109   -4.11470583   -9.26263634     -7.63269003   15.09388845  -31.30781526     -0.26386158    9.50200170   -4.67365187
    1    9.52645247   -3.73935189  -10.16060385     19.13707070  -11.70258006   32.54962207     -2.04104961  -25.16922591   -4.89611946
    1  -10.12524172   -3.64511685   -9.05209372     -7.03985381   -1.86045606  -12.56642690     28.29269216   -8.54904025   -7.53197528
    8    2.26588381    4.74972971    2.15230030     -4.94628529    8.10118756    5.88800274      1.68252265    3.84439995    1.58645265
    1    2.12691865    4.18684830    1.39838685     -9.96498657  -23.31632958   -6.12439069    -22.12125446   -9.07899264   12.03553344
    1    2.81982181    5.38162310    1.69812497     12.03681156   15.81466309    1.25097225     -8.50186699   21.29512829   11.37699198
    8    4.20920271    1.42776556   -1.88318238     49.36281320    7.87743554   -8.68807124     -1.83094202    1.77228337   -0.05972196
    1    5.15373763    1.21239949   -1.55292174    -47.21825898   15.63779591  -19.30671318      1.32547026   20.66529199   36.93411198
    1    4.35508836    2.03495569   -2.69642636      0.77097036  -21.57781449   32.61523118      0.35490570   12.50291700   -4.89218392
    8  -10.11126175   -0.63643571    9.05308315    -15.60819350  -19.58646193  -48.27166558     -3.54571061   -0.10472478   -2.89775492
    1   -9.90578431   -0.22231847    9.82146887     12.09229867   30.44693383   48.61316696     19.64510588  -14.66072669  -11.14425995
    1   -9.81190782   -1.52018631    9.24577972      1.48060447  -15.34834548   -0.62738108     25.05008767   10.80753883    6.15707652
    8   -1.44643732    4.39778695   -9.82829439     -8.94181158   55.84290970   20.37232864     -7.99753939   -4.01901635    3.64399604
    1   -1.52901308    5.30888749   -9.39436345      1.07350195  -38.39842300  -16.97877649     10.76940020   20.10530161    5.68426154
    1   -1.28078197    4.67394724   10.04610484      0.70997087   -7.97268743   -2.07091765    -14.94449519  -36.24954858   -8.53776818
    8    8.04470637    7.81064095   -0.64881215    -27.40238285   24.05802900    6.36038675     -1.29566087    5.23595354    0.52663428
    1    8.19976314    8.27407377   -1.49329558      7.33469774   -4.76653329    3.17158672    -12.89561372   11.59330827  -20.10219360
    1    8.64276451    7.08044697   -0.62765724     23.38777896  -14.31900289  -10.12678516     11.68268282   -2.45879636   14.20666818
    8   -1.93651126    2.02424030   -6.98435059    -18.44653500   26.56713684    4.57658947     -1.72659255    4.31641622   -5.50753282
    1   -1.31109654    2.78497493   -6.88088916     -6.58070705   -7.13545510   -1.44925850     -7.80570034   31.99924223    6.45262371
    1   -2.81639323    2.41866847   -6.78650650     16.71986163   -4.58911902   -1.69499763    -14.36942840    0.95506320  -11.05210044
    8   -8.11467455   -9.52364619    3.44504731     -4.39300623   -4.70285557   27.90387394      5.95305215    3.34615590   -0.33232719
    1   -8.60994152  -10.20779442    3.90789940     -5.02193152   -6.93898959   -4.45578844      5.47390688   22.38902844  -40.47986907
    1   -7.98616737   -9.87667531    2.58148239     -0.16839148  -14.58010376  -28.99989797     -8.73148135    8.44948603    8.16331756
    8    4.70248636   -8.89815437    9.40626491     15.35145423  -10.16695685  -21.24725754      0.46427081   -0.05500075    0.51410506
    1    5.17739597   -9.65903782    9.81449865    -11.19561951   10.19284794   -7.42899508    -25.04426687  -28.85129673    5.44989490
    1    4.94049000   -8.99184752    8.43452444     -5.87098156    5.44942773   27.62927656    -28.16750403    2.93756997   -3.71208327
    8   -4.55758630   -0.99857165   -6.36075422      9.85205692  -13.82085583   20.53116160      0.89017718    0.33640190   -6.67038006
    1   -4.66883753   -0.23247899   -6.91175113      6.07729019   13.23619239   -7.71507086     -9.84332846   13.39986902  -26.78720046
    1   -3.65907876   -0.87728171   -5.93849838    -12.77220931    3.71973334  -10.65773160     -1.37184970    5.87247939   -3.52008869
    8   -0.12013516    8.00534665    8.78317976     -7.75386496   -4.37925780    7.15745503      2.57924061    1.51643604    0.43121142
    1    0.68994710    8.58706354    8.80925808     -5.88606852  -12.07277230  -10.17754983      6.78907277   -0.43972485   -1.24548377
    1    0.03509528    7.31760688    8.08965249     15.80003534   11.66500009    0.48836727      8.89986005    9.98961060  -18.38703716
    8    4.66261497    3.06873320   -3.88561339     26.98074857  -26.59138886  -33.66376600      3.08909226   -1.09342554   -2.55376735
    1    4.30195890    3.89371992   -3.71732225    -19.51639247   43.63228847   10.39360119     -7.71395325   -6.31445610   15.67235647
    1    5.22287376    3.24715824   -4.72340803    -19.36600146  -10.37892981   37.15505253      4.40683463    0.76170169   -2.06381331
    8    8.03207038   -8.43912423   -4.37829089     -5.62908652   38.47954790   -8.57791614      2.55782873   -1.72542214   -2.89770779
    1    8.01196835   -9.12748217   -5.05412597     -3.08399394   -1.07822267    0.19740584      3.65607523   12.73532168   14.73637184
    1    7.78622198   -7.59208984   -4.86058869     10.86324079  -30.77151081    2.60465849     -7.42578446  -10.98737710   -8.53813560
    8   -3.45180138    8.83151418   -1.51872659     -6.09298443  -26.58911957   -1.29748333     -0.93215380    3.84144436   -4.02217011
    1   -3.32661431    9.46770290   -2.21497911      5.13427755   10.87778996  -12.58209705    -14.35547446    5.76075431   -4.41494336
    1   -3.59276316    7.99139694   -2.00538899      5.23109006   13.94299423    2.77295752     19.28701708  -16.51782104   -4.15836740
    8   -7.14497997   -5.99768099    5.60523997    -19.02883682   19.82843766    3.88928936     -3.20132986   -4.11647456    6.22842322
    1   -6.28146894   -5.93395255    6.02327974      8.75118194    0.65033036    2.24476743      6.97694532   -8.37780404  -19.74498041
    1   -7.11760298   -6.87201137    5.21429002      5.15803056  -15.56025568   -2.96213298    -14.11885438   -3.01881509    4.50547585
    8   -6.37234702   -8.49423422    5.05549989     14.30548285   15.73578999   16.23735830      2.64822275   -6.10953654    2.70778058
    1   -5.55519740   -8.60022250    4.53038224      1.77558208   -5.21876920    6.74788231     12.35339864    7.95596969  -18.96441537
    1   -6.97979522   -8.99085881    4.49677217    -12.28998083   -5.22734236   -5.83875910     -2.74500254    1.18777148   -5.37377872
    8   -1.66517097    6.59130059    3.49295074     19.22694466   -2.99974786  -12.14792507      2.75087507   -0.37673958    0.39947285
    1   -1.91819860    5.90720901    2.79146451      1.75365666   20.40414777   16.26917105    -12.19470028   18.41829360  -20.23087859
    1   -2.38931065    6.53520132    4.13402336    -11.67166072   -9.01054290   -0.25406114      8.98644784  -24.08935679  -20.96955352
    8    4.03383552   -0.90782190    7.79444542    -33.84002193  -48.96858884    9.83407324     -3.17389700    5.55971949    2.47948756
    1    4.92229349   -1.23165572    7.97505672      2.90415623    1.03520964    3.64561967    -12.55141834    4.44320409  -19.99453068
    1    3.48320129   -1.74829945    8.05402056     27.10527049   47.91874050  -10.67620594    -16.34461696   26.89930273    2.87756278
    8    1.48135856   10.08681449    1.66951658     10.99579831  -31.60153310   41.92802963     -4.57506447   -3.59484020   -3.27570359
    1    0.71978211  -10.14858056    1.82938633     -6.19666932    9.33036728    8.15601246     26.33066725  -35.43087707  -18.51195358
    1    1.59413652    9.56776643    2.56075240     -1.66760876   20.74222779  -45.19541374      4.68851252   -2.02566383  -18.64041004
    8    3.30804228    8.00819014   -0.75933350      2.87312983  -53.09426897   -5.92291276     -3.52854178    0.66380741   -1.86370884
    1    2.63879374    8.64845050   -0.89797078    -11.97913998   31.12539205   -4.57721387     21.15432532   11.65716011   12.27466766
    1    4.12133171    8.49404953   -0.64470276      9.35035085   15.77421794    5.70613646     13.92504050    9.77835576   -7.89992535
    8   -3.08997021   -9.43608407   -3.22559348     51.31902660    9.92692248   -7.41668995      3.05229911   -1.83070566   -4.12793633
    1   -4.00656072   -9.44569264   -3.31985771    -39.75710308    2.43972217  -10.77379493      0.98589462   -8.23868203  -37.84725346
    1   -2.74945248   -8.91959912   -4.00589153    -15.14663270  -13.10559823   15.55517666      5.91717334  -24.36435266   -2.32104237
    8    2.79258531    9.04824258   -8.46882707      3.74504173  -18.81364476    4.44240216     10.08677773    3.85695544    1.74150113
    1    3.50199681    9.32136625   -7.82011606    -19.51894508   18.69655307  -14.40999966     12.73100024   -0.19502812   24.77227043
    1    2.45409852    9.84437474   -8.97767813     20.30084484   -3.97998380   19.63339592     -0.17027775   -2.07207977   -7.73369352
    8   -5.74110631    8.96319938   -6.53840793     11.25544327  -24.94918080    4.43125098     -5.01651571    2.18701831    1.99402768
    1   -5.52296952    9.86852825   -6.48936182     10.99069890   35.21939125    6.44227769    -10.07253136  -20.29616757   31.39554566
    1   -6.60566563    9.03825909   -6.88425393    -26.83671197   -6.48651315  -15.01586262     55.49077796  -12.24801408   10.19909058
    8    1.06758904    6.23595104    7.09504346    -34.55240753   14.92697078  -10.57552453      0.41291576   -1.73734561    0.98513975
    1    1.83712442    5.75672686    7.31898185     36.69644087  -17.72839340    7.39668012     -8.32876867  -18.19264220   -3.40243418
    1    1.11233067    6.14561802    6.10532728     -5.16017594    2.36936989   10.13177586     10.20637072  -29.09773929    7.27906808
    8   -5.96523927   -1.32775018   -4.01643582     18.63564564   -5.13252557    4.80436045     -5.34939736   -4.20031272    0.46003208
    1   -5.51798403   -1.38616622   -4.89277657    -10.40107522    7.89913750    5.07780048    -22.20747464  -13.00747155   -4.87343287
    1   -6.70416237   -0.72545797   -4.17866945     -7.53854045    5.93902335   -9.26576844      8.05497621   -9.18581582  -11.39906874
    8    2.20784613    8.41084550    3.67565621     22.12257037   -7.74278382   10.75303509      4.01078497    3.30230363   -1.83002425
    1    1.85105382    7.58306005    4.03212172     -3.42180424    0.42609530   -1.50526913    -17.34143143   36.12955327  -30.78890020
    1    3.18020823    8.27164376    3.83748015    -18.41192307    4.65309613   -6.40768823     -2.72361550   -3.98114742    4.99275873
    8   -6.41042270   -2.82491447   -7.09754915     -8.82092571   20.28022756   15.53052155     -0.26641911   -1.34369815    2.94020325
    1   -5.72935656   -2.20575301   -6.70781378    -10.56869047  -13.64614611  -11.40493201     -0.69779945  -18.06751948    4.90183033
    1   -5.83318649   -3.46486772   -7.53679413     11.36545789   -2.38998226   -0.94177644     11.41505201   15.13021922  -10.54723172
    8   10.09050515   -6.26668932    4.01711637    -22.85313092   15.29045102    2.71100633      5.70143555   -2.81022397   -1.09794884
    1    9.61768329   -5.40403282    3.96967657     11.55691785   -7.43905517   -0.00552067    -23.04977015   14.21061060   -6.50799356
    1    9.32207393   -6.85226273    3.86175276      3.03818070   -2.32973485   -0.10362198     -7.82242240  -30.08373925   23.73170065
    8   -0.69898838   -8.04124845   -9.60017013     -8.52890439   -9.91037218  -23.99622064      1.20938502    0.92321367   -3.51254322
    1   -1.28199625   -8.43281007   -8.93617286     -3.47963282    0.74088811   10.37266246    -20.05927288   -1.44025454  -49.68917690
    1   -1.36620569   -7.97957010  -10.32138369     12.81799443    3.16889092    9.11875259      6.21375505  -19.68214417    2.37292380
    8   -2.36341394   -2.51714302   -8.54449182     14.11530755  -22.47969207   13.04831079     -8.46392431   -9.14368114    3.17482880
    1   -1.40049006   -2.66764496   -8.56933691     -7.34660321   -3.12640694   -0.21641085    -26.62576644   -1.39897402  -10.87266027
    1   -2.70985821   -3.34880158   -8.12689322     -1.71720866   22.66928576   -9.49556865     -1.96817815   -5.51447414   -2.90246131
    8    7.60787120   -4.28076336   -3.21221498    -17.76108972  -45.77944202   31.95720681      0.31068266    3.23612546    6.37299025
    1    7.12275098   -3.84356177   -3.93145928     -6.48446296    6.05973685   -3.94972604     -8.63548867   17.67751733    8.31346837
    1    7.09205875   -5.14624411   -3.04441421     21.23924901   36.32782688   -8.11245895    -10.52108017   20.85222953   -3.64321608
    8   -3.37086460    7.74192008   -6.14227407      2.49954022  -25.87156765   20.02016944     -1.65747820   -2.04183387   -1.00207282
    1   -4.24468362    8.07587206   -6.34432695    -20.17868071    3.90466426    4.53449652     -2.98061067   18.66653300  -20.85093080
    1   -2.87333013    8.24108436   -6.74941753     22.78391709   19.82422795  -22.83043025     -4.90114936    6.56556229  -24.66353472
    8    7.93364216    5.31689270   -2.81688327    -26.01650222   -8.25518684  -27.68624956      5.25406588    3.17269398    6.73516937
    1    7.03678542    5.21547949   -2.38212636     20.53777478    2.70950773   -7.08787688     25.32281657   -7.56604321    5.37516767
    1    8.45947025    5.46233983   -2.05281887     22.52880309    5.65212687   19.12945929      5.53073525    8.13658709   -5.94926655
    8    5.90893984   -1.35124575   -1.21952672     24.51534485   -2.68054294   15.19664451     -3.88600415   -3.21754541    0.38458698
    1    6.46603124   -1.13042419   -1.95791919      5.29455388   13.15792672  -22.55031354     -3.32485508  -10.37849773    2.36252384
    1    6.60358940   -1.83505380   -0.73950046     -6.19489298   -1.73011490   10.52620678     15.07752894  -13.14328397   19.55240659
    8    1.55220572    2.86236025    9.94305072     50.59974755   -1.24295729  -51.38526619     -3.82145282    0.55852151    1.88047135
    1    0.69990804    2.47641246    9.84577177    -26.04204118   -8.16448268    9.00612106     -1.80211943    1.44235652   18.91479737
    1    1.96359223    2.56205771    9.05451020    -14.76798500   13.18186442   39.23174409    -17.17743916   -1.02624065   11.44098100
    8    2.04020268    6.83110804   -5.09457081     -5.33345198  -43.59643066  -12.57289365      5.72136911    5.78982686   -6.40856381
    1    2.21815994    7.74689240   -5.12123781      6.74600894   42.04677529    1.30973525      5.71531264    2.17991969   44.31357140
    1    2.56239782    6.57308382   -4.32226462      1.07310163   -2.89773425    8.79392068    -41.69715699  -26.49020878   10.56548147
    8   -3.35574372    3.44139909    5.93649375    -14.69015456   -3.15718097  -19.05499077      1.36897012   -1.11491104    8.38450526
    1   -3.53386399    3.45832834    6.87740382      4.48939985   -3.87899573   20.64144861    -12.56038439   15.30676327    1.16569838
    1   -4.17540610    2.99820224    5.63332366      1.57316874   -2.97147133   -2.39933314     -4.45329001   11.65486568   13.84443554
    8    4.87298630   -7.48020415   -5.95382777     19.78824586    1.33084305    5.81566017     -0.09582620   -1.40106992   -2.94002351
    1    5.84672522   -7.20939387   -6.10760373    -39.55623766   -7.78279638   -2.55702306     11.17251751   19.99879458  -28.56859424
    1    4.44624314   -7.52136067   -6.86409528     16.54364374    8.48247929   19.13739889    -13.86974823   -1.96893694    6.52210374
    8   -5.88191500    2.45261766    5.10092581     36.31518034   14.45729680   -2.40935036      3.71708299   -0.10221018   -1.35287837
    1   -6.14486575    2.42618224    4.17453639     -1.63336272   -1.27185779   -7.90141697    -27.27212557  -10.82561752  -23.93614199
    1   -6.65013050    2.15082990    5.52707893    -28.15135733  -10.68515512    9.37668099      8.22778316    2.29229744  -12.58603383
    8   -5.18520224   -8.20668897    7.62572755      3.15256172   25.86542743  -17.86511675      3.95861146    8.05278224   -2.45063381
    1   -5.31690028   -9.12330697    7.92422578     -1.64462924   -5.56021519    5.03467630     14.58764913   -0.62090825   14.59531894
    1   -5.69295978   -8.22869905    6.78681106      1.26446378   -6.05088488    5.05555045    -16.17721811   10.93634003   21.91572789
    8   -4.60483578   -0.36497122    1.98939372      3.08850802   23.91930001    9.84328032      6.19220411   -4.56450925    1.48277570
    1   -5.40034322   -0.86865878    2.22866258      1.20341923   -5.24063448    5.13027465      4.15589755  -10.82905980    7.45503197
    1   -4.38537999   -0.76696893    1.15720479     -0.23728879  -13.79602461  -14.38776511      0.64798747  -19.68286326   34.71003346
    8   -7.95675698    0.28450401   -5.07942222    -10.36658436    0.28228528   -6.07532090      0.60127158    2.86356908   -0.22477594
    1   -7.98935148   -0.26066946   -5.88782251      1.14365776    3.49225635    0.29615664    -18.99820503  -12.05309398   35.61909986
    1   -8.78548841    0.81862399   -5.19554025     15.33775030   -3.20460319   11.27549519     19.15992961   -8.62284648  -18.66638620
    8    5.23374315   -0.11326492    1.48547007      5.89489017   -0.07157649    0.16900457      4.23115552   -2.15275143   -4.65010123
    1    5.81339781   -0.28365093    0.73000526     -4.81463311    2.04435982   -0.24933608    -14.53198409  -17.06862695  -36.90834708
    1    4.82280365   -0.98172141    1.59030408     -6.92388223   -2.56571373   -1.78958178    -16.59559933   -4.86051401   12.11697699
    8   -9.89741648   -0.34612757    0.29487616    -13.77891897    5.75723243   -8.48442630     -1.86980369   -0.98320055   -1.76649314
    1   10.24926367    0.37024726   -0.00855666     20.88351274  -17.86000702    8.72073493     15.63695745   18.89113139  -39.76127466
    1   -9.41735380    0.00163660    1.06941185     -2.29125559    5.37785943   -4.12140397    -30.46271997    0.37956572    6.22041620
    8    4.15900606    3.99223555    3.93053944     47.62219518   30.11704276   26.41397553     11.39512680    3.34765452   -1.81725329
    1    3.71729387    3.20468309    4.02259636    -30.00244729  -44.79475647   -0.81968151    -12.16847677  -34.60598134    6.20550558
    1    3.72319739    4.41005788    3.19818593    -17.07956190    4.89772309  -14.13793471     11.96407475  -17.95748385   -9.34674742
    8   -9.08753364    5.60922324    7.51287882     16.46322081   -2.26588009  -28.89881004     -1.69884825    6.52529972    6.64536935
    1   -9.59807760    6.35022129    7.85095206    -13.75713262    9.68811963    5.01848409     32.14474277  -16.78495718  -29.01902064
    1   -8.97483794    5.95736148    6.58903085     -8.02394726  -10.25059281   19.26511264     23.31199922   19.28856409  -19.26640014
    8   -7.17669386    2.41473795   -2.84173339     29.03028352  -28.57469264   -9.11654030     -5.83242840    2.84119637    1.92709325
    1   -7.63760789    1.94020651   -3.55620869      3.56923956   -1.15518637    0.31742198    -14.89844424   -0.13861765  -14.51292465
    1   -7.78978472    3.04928208   -2.60010229    -27.93020398   28.09204449   10.66714473    -15.55443087  -15.78827835  -15.35893980
    8   10.15431284   -1.92439819   -6.26689302    -33.57047360  -14.79345729   22.52647317     -0.04497366   -1.34392167   -3.88640675
    1    9.35283785   -1.36907222   -6.27295926      0.47270440    2.23649503   -2.01453414     -1.58408398   15.69743195   10.94152873
    1  -10.11432303   -1.51647834   -6.90951309     27.30739809   15.40459153  -30.43221574     -4.81367468    0.32564449   -7.54959426
    8   -9.63879187    6.50839191    4.84376587     -6.79799807   -0.33884068    9.28305103     -3.13015451   -2.39067521    3.98033262
    1   -9.77954367    6.74299528    3.90254039      8.23923077   -5.05234016    1.82171122      6.71962476    5.70008805  -28.19951095
    1   -8.77730412    6.06825857    4.83845523      6.50947263   -2.18320295  -14.06507666     26.78106823   28.25854360    2.58582047
    8    3.57505579   -5.87541793    0.36300248     -4.63485066  -25.35828126  -40.31695241      1.74119480   -3.58810993   -3.61269134
    1    4.02117259   -5.41964038    1.09008381     -6.23099140    5.22059065   16.82264649     -9.77419527  -12.10535546   -8.64899682
    1    2.65467020   -6.02591932    0.59918855      2.72055565    6.75708500   15.09372583    -23.54763723  -13.34078128   -1.37802119
    8    8.70197378   10.22490981   -2.25536369     69.55801508  -27.76152159   33.13946186     -0.53335917   -1.80131356    3.83630815
    1    9.43634193  -10.36573652   -1.55024099    -40.03767426   -4.04718338  -38.38002936     -2.07516787    3.25184017   -5.52227738
    1    8.11287653   -9.84477818   -2.12644116    -20.91602891   26.35881189    7.20002505     10.56161593    3.90400139   -7.18730630
    8   -5.34748016   -0.49281087   -1.33259195     24.28551334    9.81664749  -45.75718309     -6.18584505   -2.26497143   -2.40327886
    1   -5.41356827   -0.64326412   -2.34020666     -5.46134173   -2.32274244   44.67289092     -0.02851725   -8.37879336    6.55978542
    1   -6.00460834   -1.07874881   -0.96886310    -17.33983136  -11.75678970   -1.92821765     -3.09066695   13.81557034    2.67128876
    8    3.51003978   -7.57242888    5.04521178     -0.15122379   -9.42831006   13.93207988      3.42849565   -2.83111045   -4.37346743
    1    3.66468387   -6.63534522    4.90469828     -1.12864409   14.89766626    0.45049524     -1.60509520   20.12255913  -17.34937873
    1    3.51098098   -7.90323905    4.15147953     -0.83873472   -3.21792558  -22.42857423     38.67883993   -6.84167270   11.40083408
    8    1.71907674    1.55498728    4.73081990     36.27886690  -10.64888901    6.62911188      6.17683087    3.68611139   -2.45773278
    1    2.10275927    1.22188943    3.87337256     -5.57772682    2.65256968   13.26096160    -17.07309103  -18.95854177  -18.52194288
    1    0.90649229    1.90860000    4.43763748    -30.81566554   10.61928758   -3.74016136     14.70130461   28.68675822    5.99439712
    8   -4.04866332    3.29555395    8.61980834     -1.59264219  -37.03940679   14.98355778     -0.81427711    1.85474325   -1.65034753
    1   -4.09531556    4.20912822    8.72220098     -2.66105124   40.03888126   -0.88103857    -14.18833408    3.23713508    6.03236965
    1   -4.14286561    3.03823347    9.57383579      4.88670702   -4.83140854  -13.41302169      1.29542241   16.08078348   29.81677602
    8   -1.62912865    5.46276284   -1.29324620     16.08075371  -24.03270659   10.09474587     -0.32479102   -0.10048597    1.55069464
    1   -2.57118869    5.45974429   -1.25403561    -24.09188201   -2.08774851    2.67088228    -29.39727559   45.16250247   -7.80070519
    1   -1.46806684    6.29803031   -1.69352553      6.71110380   23.39671172  -11.77302314     12.06880081    6.01124530    5.20905289
    8   -2.14439823   -3.96522984   -0.52947633     -3.08667167   12.50277986   -8.06327975      1.17770338   -4.94366062    3.85823185
    1   -2.64850033   -4.36693121   -1.26818149      7.38305245   12.73349762    7.39180622     23.52485849   -8.32860614   25.77491295
    1   -2.02785346   -3.00729296   -0.81422328     -5.02673139  -31.29190254   -2.21874446     23.46522129   10.00515486    5.40256890
    8   -0.45129147    3.82939169    7.39781047      7.35675279   33.49308545   19.27036988     -4.26683489   -0.44764671   -0.03784259
    1   -0.17816746    4.78534109    7.52526839     -5.68093393  -30.91708840   -4.73895974      6.06996650    9.98607162  -23.05191600
    1   -0.33771491    3.74037668    6.45842734     -1.89619300   -7.92471090  -13.93153957     30.81152981  -23.29043920  -42.86044422
    8    7.10062301   -8.75596829   -0.88228470     45.14021630   -2.95792250  -26.77266634     -0.66848234   -0.34830259    2.09663485
    1    6.25697784   -8.66613569   -0.47255230    -23.34797026    5.93970359   24.99723368      5.78588599   -1.26696140   22.68224671
    1    7.78882925   -8.32216524   -0.29940057    -23.47908492   -3.22036298    1.28995867    -12.21649793   -4.00686003   16.00177881
    8    9.99356757    7.59251995    7.88156076      7.76733417   26.76243122   22.18961150     -1.75624033    7.98498143   -7.49090626
    1    9.98315563    8.55078144    8.14193592      2.62468006  -13.17786906   -8.52291245      8.44643393   14.74451242   21.06510549
    1    9.20675518    7.54309293    7.32628931    -10.50731242   -3.09737808   -9.08591793     -7.99740954    1.02226506    7.94942731
    8    0.93622617   -1.33306611    5.32520031     28.06076646   21.59911042   12.65860324      2.97867453    0.24030658    5.23022920
    1    0.10519800   -1.44994459    5.74877331    -28.21780491   -5.72246861    7.42041444     -3.50362660   17.12030978   -2.47398754
    1    1.24614064   -0.54690544    5.83739819     -1.25576785  -14.74856452  -20.08723548     11.79550435   14.88655816   -0.99334213
    8    2.03658590   -9.58189162   -9.68941338     -9.78077754   24.41398061    2.21185362     -3.38349220    3.59860162   -6.14848277
    1    1.21535667   -9.07200955   -9.77948098     -5.25206653   -4.81024342   -3.31514721      5.00993524   11.13680610   35.34195189
    1    2.54185607   -8.94993597   -9.15985979      8.87740676   -1.55542874    2.05398041    -15.00023215    4.69842050   13.34133335
    8   -2.85875861    8.93104617    2.17885992      5.29317036    4.10770068   20.41444767     -3.41403827   -2.30765523   -2.12411840
    1   -2.23843080    8.18271661    2.08507903     -4.31465949    2.20268068    6.34775937      4.29708676  -20.82632624  -19.19458182
    1   -2.75236133    9.19406234    3.14049378     -0.31418604  -11.02053506  -22.25528059     24.05604008    3.09736018   13.24187187
    8   -9.79569172   -2.49177375    2.62591292    -11.57630750  -21.49732355    8.85108865      0.88196085    2.32483437   -5.82844148
    1   -9.56643183   -1.60883788    2.37142886      6.98885519   13.69699841   -7.27169537     -1.39659090    6.80004651    4.85100896
    1   -9.21897993   -3.05473617    2.08961560      2.85872756    2.24919800    0.80912967     15.90022361   -0.18593215   21.80193588
    8   -6.06910197    8.40814854   -3.91351682     -7.69871786   -2.30692406   -6.39468200     -1.82896530   -6.28772157    2.48398049
    1   -6.11324745    8.62263634   -4.86490626      6.40581552   -5.66057234   -0.53790568    -32.74174569   10.12431224    4.39019515
    1   -6.19796677    9.29542937   -3.53661744      3.96905510    6.73389038    8.31844147      9.90532155   11.31432943    2.20276200
    8    3.29868489   -8.78117684   -3.88247159      0.65833287   -9.13555478    7.45745662     -3.58864357   -3.13428316   -2.32162340
    1    3.68647824   -8.21450009   -4.57160696     -2.77259002    4.22288367    0.35986743     -8.71164233    2.09012351    0.16553678
    1    2.39463319   -8.44060360   -3.73037504      4.04934271    3.61612521   -6.10355194     -0.51623742   33.14008837    0.85649456
    8    8.13245397    0.27485948   -6.12579861    -16.23644995  -37.43322300  -27.07289387     -2.55733484   -1.57094721    3.86345497
    1    8.30364068    1.17466974   -5.92431470     -0.35198333   25.46929863   -0.56870351     -2.82641142   10.88254630   -8.09845732
    1    7.47651865    0.28801547   -6.90991369     20.73899099    7.95893888   31.64740625     -7.43928816  -15.82395750    0.62344905
    8   -0.83279882    0.40520429   -1.09274975     38.41460273    9.60593925   12.83377372      4.85785141    5.98402735   -5.51296151
    1   -1.00948200    0.71039821   -0.18915122     -0.55031873   -1.96541614   -0.91047087     13.56761173    1.08806248  -22.15044701
    1    0.17606384    0.33392323   -1.05256495    -29.98372218    1.23693120   -7.37618928      6.10885305   -3.65578447   -1.92588208
    8   -6.32366521   -9.22512687   -5.73059825      5.57000914    0.53076198   -1.01963016      4.16429367  -11.37524705    0.45145911
    1   -6.91564116   -9.25301110   -4.96840718     -0.45880826    0.89057459   -1.23624459     12.31035660   27.40983310   10.18894235
    1   -6.91710337   -9.32310726   -6.49346879     -8.05194554    3.31696916   -1.48482007      7.96401167   26.02741042    9.25005195
    8   -3.71770163   -2.05690340    7.35011556    -11.34336841  -14.67169458   -4.13860398      0.23305352   -7.20961607    3.33223000
    1   -4.07682776   -1.25653632    7.72867783    -10.56745657   10.85835783   10.53242213      6.34802694   15.39903468   25.52932237
    1   -2.97387404   -1.68347906    6.86711041     15.09790528    7.18632042   -7.95499248     15.00149123   13.01828842   16.93530747
    8   -9.95958503    3.49168599   -0.79890068     30.13093044   31.01648791    5.75982747      3.11356514   -2.40453855   -3.71005196