 BEGIN_INFO
   #
   # This is a XCRYSDEN-Structure-File
   #
   # aimed for Visualization of geometry
   #
   # Launch as: xcrysden --xsf .HICOLM.XSF
   #
   #
 END_INFO
 # estrutura final
CRYSTAL
PRIMVEC
      20.69976940       0.00000000       0.00000000
       0.00000000      20.69976940       0.00000000
       0.00000000       0.00000000      20.69976940
PRIMCOORD
  927    1
    8    4.73367581    3.10208707    2.14061019      0.10164917    2.53658558   14.29990811      0.69474738    1.28406843   -0.45686446
    1    5.18583164    2.90103691    2.98595542      2.69572478   -4.19165636   -1.69062154      9.40137257  -19.24695005    9.81228139
    1    4.41257621    3.98697925    2.44059780      0.37919283   -2.59315492  -15.18881250    -14.10132453    8.22615365    1.19131140
    8    9.36654352    7.64618326    0.97682270     20.71185398    8.87788819   -3.10077525      2.59565675    0.07155602    0.97597368
    1    8.55210493    7.24382817    1.26293732    -10.14741362  -17.58898978    9.55969125    -10.14658975    3.24074896  -15.41657920
    1   10.07518057    7.14614740    1.47091889     -9.93214214    9.46124650   -9.44099324    -18.10022970   -7.79446079   -0.19058753
    8   10.04776534    9.93607665    7.21476608     -0.86665329  -11.05247758    8.94807143      0.10013040    0.49136727   -1.08803490
    1   10.01004542  -10.11953668    6.49202564      2.95545212    6.23524570   -9.19367314     -6.92568675   -0.92915353   -0.40370689
    1    9.35573406   10.29607809    7.80622824     -4.68690910    3.18373180   -3.02842480      5.35867028   -5.19130865    0.95435733
    8   -1.29840821    6.59631334   -9.23919605     -1.77802267    0.84212098   11.53509480      0.72372367    0.73498469    0.78018079
    1   -1.89758246    6.86352540   -8.51273548     -4.34464254    3.97597940   -2.94779850    -13.89001834    5.79346414   -4.79185276
    1   -0.62842887    6.16106092   -8.66288042      5.50583063    0.37591494  -10.62931347      9.31475996   -2.69650616   -4.19789730
    8   -9.30449482   -9.04680509  -10.20920236     21.39142396  -21.13321735   -0.16898759     -0.63461758    0.67007381    1.50164088
    1   -8.88499240   -8.37911677    9.95547265     17.92891924   10.50416655  -16.87914157      2.73474611  -10.02812718   -8.65073223
    1  -10.13681101   -8.63377944  -10.12077402    -42.11609865   11.53980795   12.29787585     -1.60182855    3.76278891   -7.63102671
    8    4.79963124   -1.67822162    7.26867204     21.32512444   33.19596125   -7.71590684      1.08042117    0.62976292    0.26220908
    1    5.53215773   -0.95528605    7.28119885    -25.37883149  -31.26627166   -0.71530261     -2.44441577    0.86849059   -5.62020516
    1    5.13070814   -2.29695710    6.58052178      5.72867182    0.84293795   10.37030152    -17.23968055   -3.54141487  -11.95837719
    8    3.40484784    9.72928499    7.30517852      5.64260896   26.32522798   37.98183747     -0.10722469    1.43363862   -0.14098249
    1    2.59117951   10.05631923    6.88413643     -5.64091105   -2.63313483  -11.63009736      0.06509812   -7.95851972   -5.36745115
    1    3.34847850  -10.34817942    8.10601017      0.69702665  -24.98762934  -21.56357491     -4.52726574   -2.27859407   -3.39432485
    8    3.45481652    7.68578787   -5.26694074    -23.19036556    0.01469307   24.29053957     -0.21031476    0.20441396   -1.08775966
    1    3.73377042    8.56264326   -4.95696951     -5.52343483    9.06809808    3.30043001    -12.06271865    2.24529591   12.80258429
    1    4.17804442    7.51780579   -5.84561093     20.97215203   -9.83086514  -28.42059140     16.85022851  -17.76573156    1.87502865
    8   -2.72830448   -5.96617067    9.37779091      7.72493240    8.73710177   17.08219924     -0.85045807    0.97832591   -1.20907968
    1   -2.61155181   -5.04197078    9.72717077     -3.21516544  -12.96489048   -2.72931925     -4.40275613   13.71410892    8.17839839
    1   -2.04426489   -6.43188178    9.94226193     -7.76541417    5.30888871  -14.78510636      2.83209406  -28.28947910   -2.99080133
    8   -2.29265316    1.93369315   -7.51788283     20.61363170   16.08513208   35.33286926     -0.54452812    1.37479682   -0.26030680
    1   -2.32533140    2.72386550   -6.86623255    -11.75446752  -26.47136286  -36.04149063      4.42818224   -8.12774576   -6.70048351
    1   -2.52531761    2.27821952   -8.40694585     -9.89582746    6.74691124    8.62826415      3.31560433   -5.34918288   -4.02923740
    8    1.63795396    5.09998654    4.38112243     14.07103343   31.01630822    3.79672127     -0.21876527   -0.47398092    0.20748161
    1    1.88129857    5.87937566    3.77916330    -11.73282067  -26.84531472    8.57313201     -4.96982647   -7.30625109   20.65940168
    1    1.15601364    4.50043936    3.79260372     -3.29069935   -0.90937427   -9.58639686      5.92331456    9.05928804   -8.25932676
    8    7.18026673   -6.10598127   -4.96721758     12.44141149   -2.63323543    2.60455653      0.48820818    0.44865883   -0.22862031
    1    8.08411817   -6.24787989   -5.35170885    -17.99436291    2.18558434    0.27915374     -9.81595251   -5.72676645   -0.35012435
    1    6.92130969   -7.00721355   -4.66740694      4.19045206   -1.52172192   -5.84459898      2.49252719    1.28937215    6.68627855
    8   -8.72324230    8.78472850    3.55627879     -6.47412611   16.12813064   25.88266010      0.68606968   -0.51536441    0.49435887
    1   -8.76805994    7.96197147    3.06024944      0.37049924  -13.77771619  -11.58047114     -4.21276186    2.49417220    5.72116677
    1   -9.03823209    8.48418237    4.44802358      3.27967623   -2.41047020  -10.55064878     -3.69903957   -0.59864617  -12.11964731
    8   -1.74920791   -7.99178502    2.98127650    -24.06964921   37.13037103   -4.98759464      0.13368500    0.13256089    1.31061064
    1   -2.36484791   -8.58609401    2.50288233      5.77670912   -4.54120921   -1.25003994      2.71148743   15.83096772    1.07674775
    1   -2.30879687   -7.13660899    2.91126167     18.03867657  -33.06146949    5.36200459      7.57372476  -19.34682701   -8.34677166
    8   -1.62160573    3.90883504    6.74350103    -13.96859395    5.20433032   -9.63405630      0.00446053   -0.74411622    2.07920265
    1   -1.29676861    4.43027086    7.49989596      7.27269657   -2.47453853    5.44739924      4.78763172   21.23082858   -6.18922850
    1   -0.82768747    3.47112585    6.37798223      9.00847830   -0.36659672   11.20682865     -2.18628815    7.34172767  -36.80759948
    8    2.89713851    0.99104015    1.79010718     27.92113582   18.84323855   12.82828887      0.17418791   -0.14758602    0.23759446
    1    3.64395465    1.66644934    1.76247188    -20.20638182  -13.74381309    9.55976055      2.06242653  -12.84247766   -4.49348890
    1    2.61198232    1.08098708    0.88527769     -4.14626206   -6.07681119  -20.44873723     -3.67475609    6.83216627   -3.56921807
    8    2.30898526    2.11614629   -7.76290084     -2.28360897   40.36589668   32.64522028      1.03117913    0.24867522    0.86407384
    1    1.56807463    1.58003937   -7.41888311     -1.19689904   -5.71512286   -2.80950579    -10.24314333  -10.11431120  -19.52922971
    1    2.22584379    2.89241401   -7.09962826     -1.21621988  -31.02507636  -27.45819245     -8.51669764    0.09998194   -0.92598421
    8    6.21317368    0.03206763   -7.64227600      1.29467493  -28.96085476  -11.77537721      0.92660731    0.27793283    0.99651257
    1    6.66284128   -0.58931760   -8.28782199     -2.05800837   18.47405715   10.42538495    -12.99348819   10.55952508    3.07410118
    1    5.67732384   -0.67885533   -7.20725016      2.01969055   11.20163362    3.76553218     -6.36248902    7.75958879  -18.03012534
    8   -0.50574061   -7.13523960  -10.26329749     11.34651351   21.31830825   20.98049949      0.60343244    1.41653899    1.45307585
    1    0.26750696   -6.81942819   -9.70535096     -8.56396182   -8.40800942  -19.80921014      6.33690392   -4.86448501   -3.33351263
    1   -0.25979838   -8.05396071   10.23323528      2.45028809   -8.56283070   -0.27008296    -10.97120146  -10.09714697  -12.31451110
    8   -4.04076895    0.19971907   -2.35100197     20.22076588   28.05659040   30.71312709      1.55657608   -0.25187684    0.07239623
    1   -4.33085366   -0.44190227   -2.97017842      4.29737945  -27.10987848  -18.09598980    -11.91206233   -2.84342365  -12.09923933
    1   -3.15343239   -0.14264451   -2.00708157    -25.38374504    4.66560606  -10.37398258     -5.32120035    2.01963692  -13.69630355
    8    6.93325630   -9.68837963   -6.72922025     -8.73817421  -14.07660169  -19.38531823      0.54215206    1.57363261   -0.56507826
    1    6.46036352   -9.51426387   -5.91747009     -4.40039332    6.66995104   17.19027988    -17.08548599  -18.82064041   14.62655002
    1    7.77028386   -9.22997315   -6.55638121     12.22361145    7.59436718    2.50186055     15.97663720    3.18975579   -7.30457508
    8    1.62093250    3.96546358   -5.83648348     27.10845254    8.98828406   33.58561471     -0.61644393    0.79923602   -0.10609545
    1    0.89165427    4.14549880   -5.18778022      4.11765593   -2.72627686  -12.16157698    -13.34281927   -6.74822800   -5.40837080
    1    2.42697195    4.02420880   -5.21662852    -27.23817435  -10.15943785  -21.50624415     17.57088981    2.99348250    4.48056047
    8    6.48114287   -0.54982136    2.94451252     21.04573230    7.35052640   -4.79356157     -0.78152923   -0.13145230    0.10481311
    1    6.95518957   -0.14839969    2.18568736     -2.80606631    4.27951282    0.19509774    -12.16959112   -6.97531931   11.33505677
    1    5.63158256   -0.76278878    2.54933400    -15.75074116   -6.19928791   -4.02248164      7.59927123   10.40679905   -4.71139992
    8   -5.16088519    2.02516463    4.95322402     22.93079760    5.18451792   -3.91086578     -0.67350418    0.91670211    0.52345105
    1   -4.62478922    1.79548346    5.73946865     -8.32893624   -3.04512935    3.54941388      0.26067201  -11.65202318    9.96485846
    1   -4.42513839    2.49409636    4.49204294    -13.05083518   -1.96308215    1.43125082     -5.15947851   -0.80395793  -15.28327999
    8    2.48789258   -5.38469024   -3.13756644      7.99646118    1.22116469   -1.62176298      0.33692066    0.27594618    0.64271421
    1    2.09855751   -4.85348742   -3.86480477     -0.67454007   -5.91317310    0.22790875      5.54455838  -12.90458429    7.07413059
    1    1.68007546   -5.72532783   -2.71079990     -5.64634553   -0.49760413   -0.49657249     -0.06329091    2.73550461  -13.36433708
    8   -3.90055682    2.59690003   -9.60081922      7.00133069   29.60639546   18.41865345      0.54376104    0.73912904   -0.87660041
    1   -4.25506015    1.86207504  -10.07601543     -7.78414778  -21.65583209  -20.83467098     -2.60198552   12.66893428    3.95534751
    1   -3.78574990    3.29796399  -10.28544109      0.35828012   -4.46238630    0.77737924      7.03095461  -19.67983069    5.64811343
    8   -0.77352678    7.92691273    3.78698190     14.74507983   19.60938606   27.22817658     -0.57147024    0.71500920   -0.17601955
    1   -0.67398730    8.89984270    3.87964798     -4.87006230  -12.08269309  -15.22388805     -0.82856379   12.19078917  -17.05444603
    1   -0.24097994    7.69170704    4.58807637    -13.87421904   -6.28960918  -12.78399348     17.08307083  -23.77404812   -0.36796526
    8   -8.80766705   -5.27079873   -1.88964637      3.72556338   20.47558632   15.48980497      0.84164621    0.43370639    0.98701986
    1   -9.09101555   -4.59916533   -1.20324498      8.85624406   -3.05765040  -12.89942676     -8.16997585    3.36071570   -7.74324629
    1   -9.06297586   -6.06077064   -1.38601836     -6.92661034  -13.66786640   -4.13689410     -4.27749340  -14.12508163   -9.12794697
    8    2.58712638    5.96125620   -9.78341402     26.69022564  -21.11503944   16.52302895      1.83835745    0.90491927   -0.34443852
    1    3.40552017    5.46261798   -9.42238655    -28.17209441   21.95833048  -15.39407561    -13.48338927   -9.27777912   -2.91016897
    1    1.92571003    5.77902792   -9.06922386      3.13452164    2.32822574   -6.25561148    -10.95061808    7.83241141   -4.00539148
    8   -1.55310976    8.76456603    9.76728302    -10.49189211  -18.03401685   21.74692481      0.26087615    0.66591269    0.95505418
    1   -2.35688371    9.10009206   10.23807644      4.51260511    2.60827713  -10.20245327      1.68051616   -3.79061711  -15.73445023
    1   -1.42387725    7.95514610   10.33722072      4.23462850   12.99776710  -11.25289300     -4.73194458    0.67471746  -16.40635664
    8   -3.42541589   -1.58907589   -4.33590587     21.80992435   -2.36384104   10.88238185      0.30157625    0.35678273    1.22177495
    1   -2.44661439   -1.45383040   -4.29982048     -7.25052393  -10.82290357   10.24951702      1.26982980   -7.30451203   -1.76171208
    1   -3.55516113   -0.94610002   -5.02431355    -13.14382707    5.84222768  -22.61973506     -9.25319061    8.99475242  -10.51909982
    8   -8.67739492    3.05014261   -8.40557320      3.37560693  -13.82605539  -14.14182027      0.09250061    0.75065298   -1.15332506
    1   -7.73020121    3.27180599   -8.25494592      0.09513457   -0.55140499   -0.19978856     20.60757922  -20.29635283   -7.44077838
    1   -9.05545198    3.41271039   -7.60207048     -6.66920535   12.39963897   19.47009223    -18.95394254   -0.66726756   20.76274341
    8   -2.52605057    5.91642189    3.12778090      5.05868454   25.76537751    9.37452000      1.00548966   -0.00577709    0.29072399
    1   -2.02533510    6.77608661    3.28437853     -3.56771517  -21.55783444   -2.15321251     -7.73324890   13.66739473   -1.35501827
    1   -2.02250520    5.52625191    2.38912474     -2.32960891   -0.06319982   -2.64581710     -0.08301670   -5.39273199   -8.57778399
    8   -4.90832534    5.73488398   -6.89054475     27.47996299   30.79068292    5.28214080      0.49472357   -0.26928751    0.49451212
    1   -4.08070388    6.23247142   -7.14720477    -12.46977930  -13.54377382   -0.57835086      9.59991143   -8.13611691  -10.90270070
    1   -5.24002695    6.46474030   -6.30643471    -12.71127452  -16.81754229   -7.08588704    -17.18642099   -2.99144428    4.84166001
    8   -0.88258793    8.95229119    7.16850380    -11.50579995   28.97945363    9.39118138      0.37704183    1.30209654    1.28632106
    1   -1.14722006    8.88125044    8.10745364     -3.30233231    3.45556523    5.35528184    -16.13289074   -8.82780950    8.25859819
    1   -0.55250006    8.07304805    7.05160341     12.22618277  -26.47046848  -14.80563702     -4.19222450  -12.19513937  -12.56692914
    8   -8.96653670    6.57091404    2.00590543     -6.24693195  -23.27321860    6.45397351      1.52176259    1.21698630   -0.52731396
    1   -8.12504818    6.36141416    1.55229877     -0.92514815   10.65342451   -2.97910291     -2.24248115  -11.34943859    2.34134636
    1   -9.07005966    5.73617778    2.52319445      4.86157902    9.38469686   -1.96485853    -15.78961211    4.32986675   -1.62175787
    8   -3.89891241    9.41031121   -9.61369143      4.60487046    4.70193599   28.78279691      1.48757854    1.45361228    0.08622012
    1   -4.37927790   10.25964329   -9.74261097     -2.32934384   -3.82897267   -7.21570417    -13.00608500   -1.77955698  -11.28373837
    1   -3.83744697    9.47642709   -8.61844859     -1.12128388   -5.71739568  -17.01883854     -4.06707088  -21.98672110   -0.38548701
    8   -8.80841729    9.35380378    9.11179658      9.52252983   15.72710924   24.94481195      0.27264472    0.49591858    1.52665717
    1   -9.50483257    9.43084254    8.48198678    -17.96142329   -6.42400224  -28.77904768      3.78789484   -2.56227249    0.62947847
    1   -9.06648241   10.16436743    9.61721796     11.58545630   -9.52390791    5.13196257     10.93175257    0.92043994  -16.23903795
    8    0.64353982   -1.12130597    4.74432830     -5.83573400   13.86564183   17.57130847      0.29585583    0.52012028    0.77771935
    1    0.45573102   -0.20668379    4.43389394     10.65232594  -12.98180368   -1.56687122    -17.55299591   -2.10522001  -22.35261552
    1    1.16740374   -0.92978425    5.57196078     -1.51472232   -3.71697537  -17.65385222     12.61882015   -4.13618557    7.47970341
    8   -4.53558466   -9.18978734    6.62534906     -1.44044041   27.24721788    2.94517332      0.37807653   -0.00387420    1.53752265
    1   -5.17508246   -9.76389231    7.07887516    -12.17211160   -2.35231984    2.06599712      7.52348668    0.41097508  -17.79444497
    1   -3.92231200   -9.84097882    6.33356458     15.31365178  -24.05271675   -7.00369536    -11.50453397    4.98883625   -6.05663916
    8    0.32646702   -3.69594724   -8.90241258      3.28067383   33.16462284   18.09760434      1.04311808    1.32364283    0.54887572
    1    0.60012132   -2.96388546   -8.26270521     -5.84426244  -17.39580526  -18.15006934    -22.04970529    3.91295356   15.46031029
    1    0.80691255   -4.45432659   -8.55481326      4.09158193  -10.51352067    1.67506037      4.26703801  -24.10949147  -11.42299947
    8    2.16094648   -4.77354284    5.67698920     -4.12594782   18.63155969   26.82994814      1.00183876    2.28225986   -0.25816966
    1    2.57003321   -4.63734193    6.58559316     -1.18940359  -15.41215615  -24.59989250     -6.87934788  -20.53848392    7.90930197
    1    1.28851439   -4.36265574    5.86539565      5.95634299   -6.26510363   -3.81287544    -14.18036779  -13.30402739   -9.77724797
    8    4.87133142    1.57894559    9.09389582     25.20993248   25.42644758   16.36071348      0.86822598    0.11380602    0.82566833
    1    5.47198085    1.13311967    8.47480447     -0.56767880   -7.41803182   -2.64505883     -4.59585211  -18.58175152  -13.97096942
    1    5.58084572    2.00580645    9.69633463    -28.40530071  -17.53676454  -15.66748707     -5.78815399    1.87973307   -8.47210497
    8    9.02935673    1.41741321   -4.05247195     27.29610014    5.93002885   28.45948102     -0.80740342   -1.21144220   -0.65241879
    1    8.51906357    1.60913371   -4.84148963    -10.53837107   -1.40755181  -21.29362933     -4.14102277  -13.81828906   10.14309708
    1    8.38968373    0.92016273   -3.52767176    -14.01265011   -4.59393930   -2.89414259     10.89973863   12.04668058   -2.52185675
    8   -9.73359020    7.69146553    5.88574571     -8.61678025   13.29553565    7.94674677      0.64673296   -0.37745801   -0.52896872
    1  -10.09826079    8.37887303    6.49610653      7.23934068   -1.86276942   -7.94537659    -19.82762352    5.21235528    1.46372918
    1   -9.23541732    7.15321597    6.52798268      2.49070623   -6.17857833    2.00037434     16.53976702   -5.87829520    3.86222502
    8   -8.33925052   -2.59914581   -9.22448527    -14.23162553    8.13018905   17.53736589     -0.98896862    0.14766075    1.65535953
    1   -7.58948495   -2.42488934   -9.78730066     16.30067600   -7.13710006  -19.53881815     16.69290489  -15.45640515  -20.38848889
    1   -8.15464041   -1.88948202   -8.58258597     -2.15389106   -2.27380961    5.39082948    -12.93760098   13.42916184   11.61359992
    8   -7.77020806    4.87798204   -3.76476016     28.21022253   43.11825797   34.07773252      0.79785349   -1.42553782    0.97844338
    1   -8.33820983    5.53985834   -4.17797969     -7.16911298   -3.37364643  -10.49002246    -24.61225689   -1.16910900   -7.28983542
    1   -7.12554522    5.54633630   -3.31752709    -21.36816106  -36.05064199  -21.35091162      2.50998844    6.06109102    1.25150516
    8    6.17162500   -8.55245482   -4.30743200    -13.37886767   -1.84356991   12.90491148      0.42617590    0.68404999   -0.20630735
    1    5.37185681   -8.18137239   -3.88210162     -0.35914991    8.78669899   -6.26068624     -5.07935442   -9.09437011   -3.93158585
    1    6.25901320   -9.28186408   -3.66677274     13.95288967   -8.63045194   -2.95178992     -2.03743595   -5.52369490   -9.26977664
    8    3.55662917   -2.26155301   -8.79623811     20.48400567   -7.89399123   19.90364076      0.91366919    0.76764435    0.63653144
    1    2.70700773   -1.93048965   -8.45927741     -6.32862210    6.40481645    2.01498747    -14.52694090    0.42579774   -5.78185580
    1    4.10320927   -2.20021482   -7.94324999    -16.05770980    1.27510754  -25.85151185     -0.12811370   -9.38046912   -0.39263008
    8   10.13677777   -4.17885129    6.15027103      8.28680899    6.76325734   20.23934284      0.64745368    0.02843526    1.57049642
    1    9.58712134   -4.75332539    6.71846814     -4.58082682   -5.61849555   -7.12363070    -10.34648753    1.54281181   -0.93499450
    1   -9.77119516   -4.14934510    6.74916616     -3.58028226   -0.02995746  -11.73526711     10.49202197    4.64931457    1.49208262
    8   -0.84174098   -0.72201844   -3.76183384     -6.46337277   14.31077976   17.61744977     -0.17358298   -0.35159612   -0.51770896
    1   -0.69473295    0.23543965   -3.81192569      3.74509610    6.81956100  -15.81732490     10.60577379    8.89731080   -2.19364697
    1   -1.05784065   -0.69557373   -2.80000875     -0.92117389  -16.70711738   -3.94241944    -14.24715587   -6.68382402    4.54984208
    8    0.17558467   -6.37839406   -2.05976359     50.11275351  -10.65511341   23.18447091     -1.22628690    0.69806945    1.72207573
    1   -0.48985593   -6.46448123   -2.70949307    -32.89113572    4.31644709  -26.53348800      6.04353378   -4.24780648    3.98147059
    1   -0.21086518   -5.78976935   -1.39947732    -15.58609021    6.54536544    3.61169217     -1.86065704    1.12607933  -19.66084620
    8    2.91579950    8.27822758   -0.25883304      2.43994896   17.09466258   -0.22344546      0.21103497    1.01228978    3.27712373
    1    2.10195883    8.01404488    0.19149401     -8.83361128   -1.64802475    0.31702586     10.65029580   -9.90069355  -14.02333895
    1    3.36081452    7.43585713   -0.37373487      7.53413159  -14.57764166   -1.30063030    -18.33472718    6.18083283  -23.68545436
    8    0.72525215    5.03969241   -1.67935721      7.69790723   11.75584201    6.22888862      0.64233134    1.18801016    0.12721551
    1   -0.07721832    5.58978097   -1.55905008      2.28723654   -1.10991848  -10.24971796    -11.60845190   -6.11466418   -2.43666267
    1    1.33189154    5.62796983   -2.21100705    -10.64365673  -12.81206483    6.45937652     -7.34355799   -9.28070610   -7.43070706
    8   -0.31968542   -7.88010422    5.31125892     -7.90153720   19.27715755   38.75782759     -0.58386906   -0.61656126   -0.11282648
    1   -0.95108463   -8.00217164    4.59949764     -9.81682509   -1.44321327  -13.22334828     -9.88137381    8.02097713    4.76335956
    1   -0.85072919   -7.31838210    5.97118308     16.03571224  -17.66945914  -20.04420564      7.71667433   -6.54183512   -9.64735992
    8    6.30987368   -7.51946384    3.19936184     -8.05285865   -4.87375550   29.87228220     -0.30865456    0.01387779    1.28943757
    1    5.64627607   -7.98376195    3.77262679      7.20603204    8.02105914   -3.33966574      1.99847381   -4.02642552  -28.63297512
    1    6.13761836   -7.96349397    2.37732077     -3.16707348   -1.26353278  -23.07954442      1.59187416   -1.99682367   12.42351856
    8    8.77595134    1.46314294    8.69323275     -4.57240182   36.94575850    0.33439110      0.49923520   -0.17202477    0.94731379
    1    8.12615528    1.75665086    9.39654407     12.34500779   -4.49225579  -11.40076894    -11.73678630    1.44991063    6.60432142
    1    9.10168962    2.37529799    8.37223571     -6.51798075  -28.38248011   13.48289109     -5.37814628    2.54436636  -16.02534600
    8    3.83288683    3.67765209   -4.13731574     36.64691129    5.05203339   -6.51441289      1.04489036    1.04781891    0.98758057
    1    4.68455686    3.89184667   -4.63333663    -22.72835487   -9.82533659   10.06123635    -11.51054906   -4.10372865  -14.16396664
    1    4.23901022    3.05956474   -3.46121720    -14.53940153    4.79783853   -9.75958924      1.06570152  -16.77300914   -4.30472208
    8    6.29473852   -8.24095726   -8.92734140     31.07131077    9.55405112   16.86139866     -0.03458677   -0.51120779    0.96232230
    1    6.40636606   -8.71205580   -8.06804385      2.87261253    2.33475092   -5.96534734     -5.67639126   -1.09074953  -16.22089616
    1    5.46817131   -8.60704209   -9.18658296    -29.85832975  -12.38130695  -11.08830365      9.19622952    0.54414707    3.83762423
    8   -4.58877803    0.66333796    9.27058398      4.48398780   20.13659885   -4.77288949      0.52911687    1.05195190    0.39779031
    1   -4.31764999   -0.26138285    9.31353663      1.84436274  -14.13533959    1.52504425     -4.32828791   -1.24718197  -10.81977415
    1   -3.94036198    0.99121180    8.60451696    -14.40397093   -3.44693296    2.07164231     -5.64006946   -7.22241905    2.01793687
    8    4.95727088   -2.07092603   -6.48416499     -8.08557318   -2.04890842   28.37187735      1.64312921    1.36644623    2.28882751
    1    4.89515437   -1.93924746   -5.49276073      7.15409471    0.62840350  -20.66435161    -15.76337817   -1.88954945    0.30699395
    1    5.05772486   -3.04768804   -6.47134777      4.92125361   -2.63361006   -3.62071284    -13.28484781  -12.59836254  -32.92790726
    8    6.31204304    8.94358112    2.21784488     34.40746047    6.37378323   29.04094070      0.91374583    1.47127931   -1.00019881
    1    5.70519488    8.64120358    2.93988499     -2.91277180    4.99262908   -7.16098920    -11.68790592  -25.44500645    3.96649730
    1    7.10339814    9.23774049    2.79646399    -32.73881704   -5.31048755  -20.21606891      9.98965648  -13.65203136   -6.74688563
    8    0.27706399   -8.84747837   -6.87367920     -3.14519538   32.39444561    9.64380628      0.88638074   -0.01109301    1.85173284
    1    1.24702111   -8.77397903   -6.74662876     -1.43472977   -3.38049631   -1.70747487    -11.80835209   -2.70812152   -9.65708352
    1    0.20601864   -9.72411761   -7.22884499      1.53975445  -20.47641550  -14.34637235     -7.94180326   -1.30925044   -7.11571192
    8   -0.83482399    4.64664761   -4.69529961     18.15631124   15.79987559   13.25949686      0.62709472    0.96914520    0.17405928
    1   -1.22040037    5.54339367   -4.55085783      4.95430288   -6.21242116    0.52791364     -7.67697069  -14.19922094   -3.70876513
    1   -1.55071049    4.25380049   -5.17551259    -25.29639731   -7.82465525  -12.85466706     -6.15744397   -1.49781104    7.36551790
    8    4.99832430    2.48412786   -7.83053669      3.73600882   -7.52256583   12.00217979      0.27267429   -1.35182429    0.58284316
    1    5.39264541    1.54755733   -7.78113293    -18.34311812   25.35686941   -3.64663746    -14.09201397    8.97368973   -5.59775635
    1    4.03180647    2.37916342   -7.61334188     16.22846114  -14.35363618  -11.34051148     11.63931588   -0.70137485   -3.97251499
    8    2.84068743    6.00946879   -3.17045231     -9.43584194    2.13530656    6.40594268      1.89925567   -1.33112348   -1.00910714
    1    3.04766783    5.15468777   -3.60937545      4.44875815    4.59760934   -0.21140785    -30.54354236    7.90066258  -14.51918133
    1    2.85844128    6.66282801   -3.89691683      7.33864879   -2.81425978   -5.22669282     -3.89598077   -3.19010961   13.19274650
    8   -3.03967342   -2.95894255   -7.45165568     17.79654016   19.74513476    5.45243588      2.57481318    0.58390889    0.54084134
    1   -3.91578179   -3.29271622   -7.65035808    -18.08688675   -1.30249722   -3.29916531     -6.54153481  -10.68983546    0.49034759
    1   -3.20030980   -1.98000532   -7.29991411     -1.66969985  -17.02193674    0.39366186     -9.90020246   -5.46041153   -1.43414662
    8   10.11474795    0.97504956    5.26406936     19.58509018    4.58485447   11.60632421      1.07043669   -0.49273548    0.83523514
    1    9.16504091    0.97811061    5.47809470     -8.16670330   -1.19293322   -8.62306302      9.79175466   -1.77518485   -0.49814588
    1   10.34962964    0.05325806    5.48507797     -9.94552390   -5.06963006   -9.47619890    -22.66280897    5.43486525   -3.98294691
    8    7.11554573    8.90699464   -8.46925630    -10.69808074   -6.21618523  -27.82984504      0.93493387   -0.43124808    0.22505302
    1    6.98877568    9.67448488   -7.91231437     -4.96156303   17.91295009   13.09474625    -27.21659995    5.71503663    7.23720796
    1    7.91856311    8.56742287   -8.08920260     12.47250709  -13.98723518   14.84218684     11.15258633   -5.48103858    2.10719455
    8   -2.98111530   -3.49140340    3.05920564     10.36230624   -4.71501474    4.53662435      0.41472300   -0.94032778   -0.95498285
    1   -3.24261747   -2.62401032    3.38146808    -12.67175995   13.20117959    7.18096474    -27.19294149    5.72302843   18.33680313
    1   -2.10055642   -3.49736330    3.50131649     -1.60849998   -5.14846390   -6.49920202     12.05251213  -11.44089967   17.91809776
    8   -7.50462535  -10.27898678   -8.66453117     44.56759812    8.19031272    7.94418711      1.32745546    0.38393451   -0.60140059
    1   -8.19433162   -9.88004813   -9.17690587    -26.97535629    8.25675982  -15.14313348      1.64618419   -9.92065140  -10.44701624
    1   -6.75518053   -9.67066539   -8.95743949    -10.93450954  -22.84326215    7.53963501     -9.35531716   -2.84216999    2.55087940
    8    8.84972309    3.74255214    1.57205401    -13.94704712   17.61864227  -13.67097054      1.58696425   -1.05828833    0.29859379
    1    8.46845933    4.08929201    2.38641348     -6.71141791   14.11168183    7.99612340     -7.66410157    6.38477013   -2.66513285
    1    9.31247122    3.01678826    1.95618845     21.97286376  -24.26987786    4.47595117     -1.40413764   -3.89547885    7.66536708
    8   -8.20273950   -4.05368877    7.43734080    -15.14307246   39.30507498   24.54525250     -0.27234488    0.03923757    2.25254557