 BEGIN_INFO
   #
   # This is a XCRYSDEN-Structure-File
   #
   # aimed for Visualization of geometry
   #
   # Launch as: xcrysden --xsf .HICOLM.XSF
   #
   #
 END_INFO
 # estrutura final
CRYSTAL
PRIMVEC
      20.78400715       0.00000000       0.00000000
       0.00000000      20.78400715       0.00000000
       0.00000000       0.00000000      20.78400715
PRIMCOORD
  927    1
    8   -1.95626820   -7.87694606   -5.81151885    -15.98365291  -36.89681112   10.08890368     -1.01746045   -1.31676787    1.50275073
    1   -1.76254373   -7.19066062   -6.43309159      6.59988229   18.29323931  -19.96599504     -9.51750628  -20.34832384  -17.71965838
    1   -2.25968128   -8.58140944   -6.45959498      7.67782038   20.21012089   14.39451590    -16.96275737  -10.99042394  -10.84329757
    8    0.79039364   -3.70074902    4.04591872      5.26645441   16.69636982  -25.01378706     -5.02046097    1.12312095    4.96226210
    1    0.39070895   -3.41745649    3.18303658      2.94045327   -8.24634484   18.76183513      1.35956619   26.06684490   -1.79693553
    1    0.97283059   -2.81946269    4.45329010     -3.74443243   -4.67349735   -0.18591395     -4.97778156  -31.36566363  -12.34158798
    8    9.81605372   -4.11480083   -9.26258964     -7.75063444   15.12677785  -31.46701501     -0.26184928    9.49804853   -4.66544029
    1    9.52647328   -3.73910044  -10.16055421     19.13755887  -11.78033101   32.64354907     -2.12052603  -25.12046413   -5.03149179
    1  -10.12552479   -3.64503140   -9.05201866     -6.92069744   -1.82375108  -12.50466227     28.32168094   -8.54139005   -7.47991577
    8    2.26586698    4.74969128    2.15228444     -4.92669524    8.11625790    5.85079383      1.68381414    3.84227855    1.58491708
    1    2.12713966    4.18693861    1.39826637    -10.00096932  -23.36333259   -6.11771327    -22.07979561   -8.98206335   12.06095404
    1    2.81990708    5.38141048    1.69801123     12.05204938   15.85606534    1.28250796     -8.55188700   21.22936469   11.37173134
    8    4.20922108    1.42774785   -1.88318179     49.29249921    7.83039202   -8.68098746     -1.84384714    1.77022862   -0.05744990
    1    5.15372340    1.21219316   -1.55329148    -47.14096466   15.62100653  -19.24136166      1.52140530   20.60038375   37.01415624
    1    4.35508483    2.03483021   -2.69637676      0.76677458  -21.51389451   32.54157003      0.35171267   12.59239610   -5.02748071
    8  -10.11122631   -0.63643469    9.05311206    -15.61750617  -19.52512592  -48.27058681     -3.54162597   -0.09960859   -2.88512621
    1   -9.90598051   -0.22217123    9.82158132     12.08315502   30.37628600   48.56431076     19.59490601  -14.78702488  -11.34604710
    1   -9.81215829   -1.52029470    9.24571814      1.49892779  -15.33720691   -0.58482441     25.04390068   10.87125675    6.15959360
    8   -1.44635736    4.39782721   -9.82833080     -8.93356169   55.70558660   20.28303423     -7.99520111   -4.03360802    3.63867790
    1   -1.52912075    5.30868564   -9.39442064      1.06420393  -38.23660907  -16.87319655     10.76496124   20.26443275    5.75455451
    1   -1.28063251    4.67430957   10.04619017      0.71284689   -7.99593264   -2.08280777    -14.94744964  -36.21639014   -8.52914304
    8    8.04471929    7.81058862   -0.64881741    -27.48594786   24.07336503    6.47998111     -1.28848092    5.22965746    0.52495463
    1    8.19989225    8.27395774   -1.49309449      7.34436861   -4.67693887    3.02858491    -12.92609442   11.61291744  -20.11506810
    1    8.64264817    7.08047126   -0.62779952     23.46113610  -14.42183361  -10.10571037     11.58540204   -2.39911651   14.24868044
    8   -1.93649402    2.02419717   -6.98429551    -18.47898628   26.38667321    4.54230533     -1.72176232    4.30948933   -5.50872566
    1   -1.31101862    2.78465479   -6.88095372     -6.49406169   -6.98426540   -1.42235058     -7.77855084   32.02856153    6.45858654
    1   -2.81624919    2.41865882   -6.78639601     16.65727050   -4.54122618   -1.67854125    -14.43873534    0.97402222  -11.04509532
    8   -8.11473409   -9.52367966    3.44505067     -4.51748647   -4.89939111   27.98196228      5.95421773    3.34741195   -0.33963762
    1   -8.60999636  -10.20801845    3.90830410     -4.86926471   -6.75043367   -4.62513069      5.49444568   22.41745421  -40.46101283
    1   -7.98608006   -9.87676011    2.58140016     -0.19229577  -14.56519672  -28.89966241     -8.73073243    8.51000565    8.28354483
    8    4.70248174   -8.89815383    9.40625974     15.34679282  -10.10309848  -21.32481956      0.46025517   -0.05234922    0.51967392
    1    5.17764618   -9.65874910    9.81444400    -11.16123769   10.11260141   -7.36298333    -24.99784334  -28.89346058    5.48061013
    1    4.94077155   -8.99187678    8.43456213     -5.90593383    5.47472908   27.64219392    -28.14304950    2.91488621   -3.82685336
    8   -4.55759519   -0.99857503   -6.36068749      9.88506334  -13.98076854   20.64446334      0.88759536    0.34003863   -6.67576625
    1   -4.66873897   -0.23261271   -6.91148342      6.04783724   13.40537278   -7.83957863     -9.86850596   13.34454835  -26.75490152
    1   -3.65906531   -0.87734036   -5.93846340    -12.77148849    3.71431539  -10.65245588     -1.31880871    5.85704278   -3.47583855
    8   -0.12016096    8.00533148    8.78317546     -7.80444816   -4.32898668    7.21835122      2.58127578    1.51757516    0.42933092
    1    0.68987909    8.58706769    8.80927032     -5.85834415  -12.07313609  -10.18782601      6.81345985   -0.38958640   -1.20319556
    1    0.03500661    7.31750723    8.08983637     15.83075852   11.62540780    0.42857118      8.83417951    9.94124861  -18.38894118
    8    4.66258411    3.06874410   -3.88558790     26.99498947  -26.58540059  -33.68465485      3.08203167   -1.08646947   -2.54495748
    1    4.30203563    3.89378397   -3.71747876    -19.53488150   43.64169571   10.41349559     -7.63286405   -6.49567882   15.62915096
    1    5.22282929    3.24715041   -4.72338662    -19.35532210  -10.40146869   37.14986511      4.48723875    0.80485174   -2.21810599
    8    8.03204479   -8.43910693   -4.37826192     -5.62784193   38.36034826   -8.72351617      2.55930125   -1.73547357   -2.89544458
    1    8.01193173   -9.12760954   -5.05427333     -3.08430250   -0.92966278    0.33763353      3.66888354   12.73949099   14.73526086
    1    7.78629646   -7.59198061   -4.86050325     10.86322657  -30.79989626    2.60744231     -7.47089900  -10.85952537   -8.54895855
    8   -3.45179207    8.83147573   -1.51868637     -6.08336892  -26.47356636   -1.25551062     -0.93056101    3.84838550   -4.02183616
    1   -3.32647065    9.46764552   -2.21493522      5.13648088   10.87865947  -12.57511173    -14.37680145    5.71557747   -4.36270490
    1   -3.59295592    7.99156241   -2.00534735      5.21999985   13.82355930    2.71828185     19.26531562  -16.57547770   -4.16976990
    8   -7.14494798   -5.99763980    5.60517769    -19.02383505   19.82851210    3.90229320     -3.19635219   -4.12166209    6.22740400
    1   -6.28153853   -5.93386876    6.02347724      8.73782584    0.64869595    2.22765731      6.94062972   -8.38050144  -19.75426735
    1   -7.11746168   -6.87198150    5.21424490      5.16507080  -15.55545567   -2.96065767    -14.14029004   -2.95420395    4.51777445
    8   -6.37237348   -8.49417310    5.05547283     14.19749137   15.75981031   16.35621558      2.64449427   -6.11365648    2.70351701
    1   -5.55532090   -8.60030217    4.53057202      1.91173749   -5.22738918    6.64460741     12.34574203    7.97766084  -18.99222451
    1   -6.97976803   -8.99087080    4.49682579    -12.31295709   -5.24614217   -5.86795764     -2.69391505    1.20951949   -5.34946991
    8   -1.66519845    6.59130435    3.49294673     19.16600101   -2.95579739  -11.99134616      2.74585289   -0.37596052    0.40263052
    1   -1.91807662    5.90702525    2.79166716      1.70609722   20.38093250   16.23349032    -12.20188441   18.33360425  -20.29836972
    1   -2.38940076    6.53544203    4.13423305    -11.56825021   -9.02594282   -0.37829382      9.03470503  -24.05190450  -20.96824054
    8    4.03386721   -0.90787756    7.79442064    -33.75887545  -49.11840276    9.89588830     -3.16505438    5.57255026    2.47690668
    1    4.92241906   -1.23170013    7.97525674      2.81068044    1.09246902    3.61281337    -12.56328510    4.43878602  -20.00960265
    1    3.48336530   -1.74856745    8.05399156     27.11677672   48.01066256  -10.70559055    -16.45720801   26.70010725    2.92196170
    8    1.48140432   10.08685040    1.66954939     10.65540639  -31.41411922   42.12616251     -4.57789667   -3.58659711   -3.28669873
    1    0.71951868  -10.14822606    1.82957162     -5.86493979    9.10192212    8.06795897     26.35571298  -35.46915135  -18.54564226
    1    1.59408960    9.56778712    2.56093786     -1.65698052   20.78248031  -45.30428120      4.69541600   -2.11188912  -18.45248923
    8    3.30807757    8.00818343   -0.75931487      2.65461245  -53.14757859   -5.96197094     -3.52926487    0.67770491   -1.86215418
    1    2.63858195    8.64833457   -0.89809362    -11.88319505   31.06838560   -4.55813389     21.20387512   11.52801605   12.29363704
    1    4.12119265    8.49395207   -0.64462364      9.47401033   15.89003603    5.72328146     13.88595204    9.71260561   -7.92365825
    8   -3.09000067   -9.43606575   -3.22555221     51.43034810    9.97704882   -7.47288808      3.03885844   -1.83330930   -4.12598862
    1   -4.00657140   -9.44561020   -3.31947946    -39.81207024    2.45234275  -10.78986780      1.15111850   -8.24884028  -37.80247698
    1   -2.74951197   -8.91935575   -4.00586800    -15.20545870  -13.16919235   15.62973335      5.98019881  -24.30979360   -2.38579725
    8    2.79248445    9.04820399   -8.46884448      3.69743143  -18.83168565    4.38338716     10.08580418    3.86187981    1.74034663
    1    3.50186910    9.32136859   -7.82036408    -19.42439894   18.70519640  -14.30779371     12.81186524   -0.27269187   24.83190233
    1    2.45410064    9.84439538   -8.97760039     20.26975813   -3.97717517   19.60116275     -0.25452167   -2.05555678   -7.81516320
    8   -5.74105613    8.96317748   -6.53842786     10.77456555  -24.69189343    4.24027226     -5.01939747    2.19351188    1.99289335
    1   -5.52286857    9.86873194   -6.48967564     10.97040645   35.02274744    6.43279405    -10.11813317  -20.44202402   31.36881092
    1   -6.60622109    9.03838144   -6.88435623    -26.33668727   -6.54862447  -14.80683342     55.60119153  -12.22094700   10.26101672
    8    1.06758487    6.23596843    7.09503359    -34.58005034   14.95474944  -10.57878561      0.42195899   -1.74125445    0.98790696
    1    1.83720847    5.75690842    7.31901603     36.69882289  -17.73353618    7.36290345     -8.48117244  -18.11900616   -3.43308220
    1    1.11222850    6.14590905    6.10525470     -5.13402664    2.33657084   10.17060906     10.22774636  -29.10751106    7.23691061
    8   -5.96518575   -1.32770818   -4.01644041     18.58251626   -5.07885620    4.81070788     -5.35426587   -4.19897696    0.45877434
    1   -5.51776217   -1.38603598   -4.89272773    -10.43652257    7.91155123    5.08335047    -22.16420585  -13.04030206   -4.89453232
    1   -6.70424308   -0.72536599   -4.17855565     -7.45776951    5.87561202   -9.27844758      8.08611579   -9.21034871  -11.36056211
    8    2.20780605    8.41081247    3.67567452     22.07717421   -8.01345150   10.88254440      4.00500320    3.30436470   -1.83285439
    1    1.85122716    7.58269877    4.03242958     -3.35018717    0.67070579   -1.61795066    -17.32736959   36.12727585  -30.78241497
    1    3.18023508    8.27168367    3.83743009    -18.44028330    4.68224601   -6.42575841     -2.64709262   -4.00053207    5.01940710
    8   -6.41042005   -2.82490101   -7.09757853     -8.80343166   20.34911658   15.56534250     -0.26411368   -1.34901288    2.93613560
    1   -5.72934980   -2.20557262   -6.70786304    -10.61218971  -13.72021008  -11.44194907     -0.65381774  -18.01069379    4.94927140
    1   -5.83330040   -3.46501907   -7.53668868     11.39671610   -2.38547608   -0.94394857     11.36778685   15.14013543  -10.54331600
    8   10.09044811   -6.26666120    4.01712735    -22.55498683   15.19590647    2.73998993      5.70737538   -2.81421189   -1.09866188
    1    9.61791403   -5.40417508    3.96974165     11.43136769   -7.21656594   -0.01033984    -23.09750478   14.24104275   -6.50796063
    1    9.32215222   -6.85196194    3.86151544      2.88014219   -2.45798251   -0.12856617     -7.83471166  -30.07379764   23.73218274
    8   -0.69900049   -8.04125770   -9.60013504     -8.57694193   -9.93094879  -23.93646679      1.21162264    0.92580910   -3.50627314
    1   -1.28179573   -8.43279565   -8.93567575     -3.43632682    0.80326703   10.21023932    -20.04491201   -1.44346088  -49.73191691
    1   -1.36626756   -7.97937321  -10.32140723     12.82737061    3.12994933    9.21959218      6.16050298  -19.69522354    2.33484456
    8   -2.36332928   -2.51705161   -8.54452355     14.25969474  -22.58297456   13.09604718     -8.46763604   -9.13778649    3.17140886
    1   -1.40022396   -2.66763103   -8.56922819     -7.51190451   -3.09473823   -0.22261293    -26.59491303   -1.38605600  -10.87174866
    1   -2.70983856   -3.34874596   -8.12686439     -1.69801729   22.73065855   -9.52920455     -1.96108660   -5.60874618   -2.86295675
    8    7.60786807   -4.28079578   -3.21227867    -17.74054769  -45.89631310   32.06393308      0.31532664    3.24811758    6.36461565
    1    7.12283720   -3.84373842   -3.93154250     -6.54053825    6.08750096   -4.01236384     -8.60844253   17.65229384    8.33000153
    1    7.09216440   -5.14645188   -3.04437795     21.26710637   36.41437555   -8.14331624    -10.60934380   20.70118180   -3.60946129
    8   -3.37084802    7.74194046   -6.14226402      2.53887743  -26.05448626   20.19891772     -1.65813727   -2.03504141   -1.00733389
    1   -4.24465423    8.07568548   -6.34411835    -20.26462883    3.97511912    4.47405517     -2.89663097   18.65017075  -20.86963678
    1   -2.87328065    8.24101912   -6.74917137     22.83067030   19.93299914  -22.94828673     -4.99586712    6.48300721  -24.56847611
    8    7.93358959    5.31686096   -2.81695066    -26.11635687   -8.25276878  -27.55228377      5.26088540    3.17485339    6.74239512
    1    7.03653262    5.21555521   -2.38218026     20.68432831    2.71761758   -7.15343461     25.23721972   -7.57731253    5.40473950
    1    8.45941541    5.46225858   -2.05275898     22.48160083    5.63633445   19.06152899      5.43727211    8.11314684   -6.02856946
    8    5.90897873   -1.35121358   -1.21953055     24.34046936   -2.55519772   15.03929189     -3.89239496   -3.21686052    0.38063181
    1    6.46606460   -1.13032013   -1.95794328      5.27788679   13.15115342  -22.52790556     -3.34680861  -10.43312793    2.45612782
    1    6.60343850   -1.83492240   -0.73969576     -6.02282273   -1.85468536   10.65379560     15.10289873  -13.13584022   19.50842683
    8    1.55224400    2.86235466    9.94303185     50.61826547   -1.29610033  -51.48870616     -3.83469316    0.55885365    1.89392830
    1    0.69992552    2.47639787    9.84558281    -26.01088941   -8.14386730    9.00998477     -1.69403256    1.47622051   18.87738743
    1    1.96376370    2.56206825    9.05439661    -14.81445978   13.21477729   39.32785516    -17.11601178   -1.08105277   11.27785353
    8    2.04014546    6.83105008   -5.09450674     -5.28534292  -43.55171187  -12.54444845      5.72275817    5.80122673   -6.40527821
    1    2.21810293    7.74687147   -5.12168092      6.73090303   41.99889791    1.30326393      5.68732806    2.00540043   44.30814561
    1    2.56281481    6.57334866   -4.32237009      1.04199635   -2.88776626    8.76650436    -41.70154906  -26.47819530   10.52901754
    8   -3.35575743    3.44141023    5.93640988    -14.69929087   -3.16530898  -19.03055656      1.37281455   -1.11408400    8.38948724
    1   -3.53373829    3.45817519    6.87739259      4.48432955   -3.88415659   20.59838299    -12.57901807   15.32288324    1.08006468
    1   -4.17536153    2.99808563    5.63318517      1.58817332   -2.95797205   -2.37738833     -4.45985447   11.66717801   13.85435428
    8    4.87298728   -7.48019014   -5.95379836     19.60570317    1.26939944    5.84567044     -0.10097934   -1.40141006   -2.94154891
    1    5.84661267   -7.20959402   -6.10731810    -39.38650200   -7.72203066   -2.61266252     11.33644051   20.03099005  -28.55785954
    1    4.44638218   -7.52134080   -6.86416010     16.55385234    8.48314176   19.15805324    -13.93847446   -2.00416563    6.44258397
    8   -5.88195212    2.45261870    5.10093934     36.37513055   14.45489646   -2.07754271      3.70757436   -0.10599219   -1.35229143
    1   -6.14459306    2.42629047    4.17477559     -1.74626312   -1.29684506   -8.15706685    -27.26510778  -10.82028365  -23.90279687
    1   -6.65021336    2.15080676    5.52720498    -28.09673694  -10.65906009    9.29794491      8.34458120    2.33661828  -12.62481139
    8   -5.18524182   -8.20676946    7.62575203      3.11145795   25.95202587  -18.00132325      3.95779207    8.04600400   -2.44594213
    1   -5.31704619   -9.12330088    7.92407993     -1.65108728   -5.65804953    5.08879781     14.59449261   -0.59761371   14.57429778
    1   -5.69279798   -8.22880854    6.78659201      1.30904322   -6.03248625    5.13598739    -16.18256195   10.96143085   21.89456542
    8   -4.60489770   -0.36492554    1.98937891      3.20157136   23.87049110    9.64657556      6.19138131   -4.57076063    1.48022622
    1   -5.40038475   -0.86855060    2.22858814      1.15881455   -5.27664371    5.13279464      4.15099248  -10.80722090    7.43372098
    1   -4.38538648   -0.76677239    1.15685739     -0.30120456  -13.71119849  -14.19652261      0.64910559  -19.62574514   34.76938825
    8   -7.95676301    0.28447537   -5.07941998    -10.49035129    0.27816094   -6.22617505      0.60399988    2.86349576   -0.22316678
    1   -7.98916147   -0.26054886   -5.88817869      1.12648589    3.59570382    0.44898774    -19.00291896  -12.06781196   35.61755263
    1   -8.78567969    0.81871015   -5.19535335     15.47797772   -3.30700221   11.27389536     19.09594140   -8.60932520  -18.71320949
    8    5.23370085   -0.11324339    1.48551657      5.86537882    0.06197437    0.27536484      4.22961716   -2.15275018   -4.65015936
    1    5.81354303   -0.28348020    0.73037434     -4.72735679    2.02221402   -0.36467898    -14.51217037  -17.07707107  -36.90707208
    1    4.82296946   -0.98167286    1.59018287     -6.98019196   -2.67103347   -1.77445626    -16.56672784   -4.84963997   12.12437760
    8   -9.89739780   -0.34611773    0.29489381    -13.65453495    5.67329165   -8.38618206     -1.86621511   -0.98469579   -1.76428630
    1   10.24910773    0.37005798   -0.00815887     20.81376497  -17.76171806    8.67328292     15.55037392   18.96509918  -39.79739294
    1   -9.41704922    0.00163292    1.06934956     -2.33690136    5.35871433   -4.16350004    -30.45310974    0.35727150    6.23761959
    8    4.15889217    3.99220211    3.93055765     47.82467592   30.48987037   26.36495876     11.38264138    3.33972651   -1.82415730
    1    3.71741493    3.20502822    4.02253429    -30.21129963  -45.13633449   -0.79867795    -12.04344414  -34.41924120    6.20886601
    1    3.72307739    4.41023756    3.19827910    -17.07414514    4.86766248  -14.11052348     12.03499418  -17.97776153   -9.28809000
    8   -9.08751663    5.60915798    7.51281233     16.18809891   -2.04728657  -28.47077705     -1.70311937    6.52586393    6.65287388
    1   -9.59839933    6.35038934    7.85124235    -13.51924171    9.36278865    4.84661226     32.20138159  -16.82451604  -29.03950538
    1   -8.97507123    5.95716838    6.58922391     -7.98157714  -10.14021056   19.00794975     23.34523427   19.33090514  -19.34587343
    8   -7.17663550    2.41470950   -2.84175267     29.08010129  -28.43937275   -8.95436839     -5.84002983    2.84865439    1.92945711
    1   -7.63745883    1.94020787   -3.55606355      3.46747265   -1.21169220    0.20317394    -14.91305579   -0.13370290  -14.51400566
    1   -7.78962976    3.04944055   -2.59994848    -27.87886900   28.01412667   10.62313295    -15.43854443  -15.90478173  -15.40314865
    8   10.15431325   -1.92438477   -6.26685413    -33.49735308  -14.85654852   22.52477860     -0.03620051   -1.34004314   -3.89229992
    1    9.35285370   -1.36922915   -6.27306872      0.39563363    2.29401635   -2.01838527     -1.58588706   15.68802445   10.94990297
    1  -10.11427433   -1.51648128   -6.90943823     27.31104490   15.40965928  -30.43281555     -4.92708875    0.26165926   -7.42320923
    8   -9.63876058    6.50841582    4.84372608     -6.89712048   -0.35131962    9.58192175     -3.12836304   -2.39058493    3.97786490
    1   -9.77961070    6.74293817    3.90282242      8.22226820   -4.99441696    1.54743761      6.68544282    5.72094989  -28.20650695
    1   -8.77757179    6.06797594    4.83842908      6.61804277   -2.22509754  -14.08000549     26.75380914   28.26769735    2.64426304
    8    3.57503837   -5.87538208    0.36303855     -4.36239144  -25.25840899  -40.28766943      1.74237173   -3.58148877   -3.60214746
    1    4.02127020   -5.41951922    1.09017065     -6.28187206    5.16100406   16.73126595     -9.74821268  -12.12691266   -8.71867081
    1    2.65490573   -6.02578577    0.59920264      2.49669431    6.72145083   15.15696275    -23.55847072  -13.36876912   -1.44083598
    8    8.70197920   10.22492779   -2.25540201     69.57873829  -27.72619940   33.18424443     -0.55155967   -1.79405521    3.82763233
    1    9.43636185  -10.36576912   -1.55018656    -40.07664617   -4.05044610  -38.42070477     -1.90881207    3.26865480   -5.36280217
    1    8.11277048   -9.84481667   -2.12636914    -20.89369069   26.32842246    7.19840505     10.64843302    3.79459735   -7.21720433
    8   -5.34741827   -0.49278821   -1.33256798     24.19686352    9.73698571  -45.79837330     -6.19218703   -2.26752924   -2.39130246
    1   -5.41356810   -0.64318038   -2.34027133     -5.44481492   -2.31057344   44.74314634     -0.00587091   -8.36917247    6.37411479
    1   -6.00457779   -1.07888721   -0.96888985    -17.27271814  -11.69756973   -1.95591348     -3.01879472   13.86427289    2.67935398
    8    3.51000549   -7.57240058    5.04525553     -0.18938133   -9.68546465   13.85568250      3.42854020   -2.82861018   -4.37710236
    1    3.66469990   -6.63554613    4.90487178     -1.09176400   15.09867446    0.41172208     -1.60048460   20.06027233  -17.35116906
    1    3.51059417   -7.90317070    4.15136506     -0.83209150   -3.16952977  -22.31370645     38.68230939   -6.82840921   11.49374055
    8    1.71901502    1.55495040    4.73084449     36.25467261  -10.60354537    6.73268990      6.16734275    3.68889143   -2.45948063
    1    2.10292989    1.22207907    3.87355805     -5.55222148    2.61359229   13.15936982    -17.04997992  -18.96947685  -18.57680414
    1    0.90634464    1.90831335    4.43757746    -30.81276915   10.61228025   -3.74396484     14.82927482   28.64267126    6.00993784
    8   -4.04865518    3.29553535    8.61982486     -1.57031961  -37.03362279   14.70466612     -0.81386336    1.86443276   -1.65423105
    1   -4.09517373    4.20909668    8.72214064     -2.65907651   40.05802161   -0.84266469    -14.17728695    3.07081546    6.03594884
    1   -4.14287846    3.03807256    9.57353735      4.86343033   -4.85246657  -13.17820923      1.27517648   16.10089175   29.87199215
    8   -1.62912538    5.46276381   -1.29326169     16.36245458  -24.11900043   10.12329051     -0.32903493   -0.09418723    1.54804991
    1   -2.57089522    5.45929262   -1.25395755    -24.34338165   -2.05208951    2.66451776    -29.29670067   45.17109867   -7.81178402
    1   -1.46818739    6.29797068   -1.69357787      6.67700065   23.45535485  -11.79644441     12.04100068    5.91395789    5.25799442
    8   -2.14441001   -3.96518039   -0.52951492     -3.24627844   12.29637974   -8.25144595      1.17853179   -4.94690461    3.86036599
    1   -2.64873542   -4.36684766   -1.26843908      7.50690277   12.79708103    7.59025957     23.49393982   -8.38161982   25.74380296
    1   -2.02808822   -3.00739366   -0.81427735     -4.98718190  -31.14849128   -2.22578135     23.48601496   10.13481106    5.41179776
    8   -0.45124879    3.82939621    7.39781087      7.26533802   33.43488176   19.71953050     -4.26874760   -0.45640157   -0.04294287
    1   -0.17822828    4.78524059    7.52549881     -5.64676254  -30.83591751   -4.75609091      6.09348827   10.11430051  -23.03219971
    1   -0.33802306    3.74060942    6.45885565     -1.83515430   -7.94808632  -14.36613735     30.81927773  -23.25747966  -42.80168462
    8    7.10062975   -8.75596481   -0.88230570     45.18830407   -2.98067111  -26.83269850     -0.68029823   -0.34752576    2.10364696
    1    6.25691950   -8.66612290   -0.47277860    -23.35843586    5.95943112   25.04245003      5.88287098   -1.29166971   22.57834038
    1    7.78895093   -8.32212524   -0.29956056    -23.51698579   -3.21698040    1.31654151    -12.11891164   -3.99349298   15.99636657
    8    9.99358514    7.59244014    7.88163570      7.71580624   26.66712784   22.09643217     -1.75826569    7.97799231   -7.49669932
    1    9.98307122    8.55063372    8.14172509      2.64798537  -13.06371093   -8.45899392      8.43548536   14.79900256   21.10036800
    1    9.20683494    7.54308264    7.32620963    -10.48253303   -3.12321341   -9.06775109     -7.95382452    1.03518196    7.98712304
    8    0.93619642   -1.33306848    5.32514802     28.02437229   21.50916738   12.60901447      2.97133802    0.23466758    5.22692395
    1    0.10523245   -1.45011591    5.74879820    -28.21835204   -5.72186029    7.42258171     -3.38643807   17.14407370   -2.50480879
    1    1.24602266   -0.54705461    5.83740771     -1.21996698  -14.66230889  -20.03919834     11.80064522   14.94762930   -0.91002047
    8    2.03661972   -9.58192757   -9.68935189     -9.84720058   24.36545507    2.13164332     -3.38092467    3.59222079   -6.14905094
    1    1.21530646   -9.07212102   -9.77983447     -5.17808403   -4.81070525   -3.27455851      5.03159323   11.15678374   35.35563527
    1    2.54200626   -8.94998299   -9.15999316      8.86474511   -1.49388000    2.08781772    -15.03707330    4.70475229   13.33273297
    8   -2.85872446    8.93106925    2.17888119      5.15060806    4.21612848   20.27840649     -3.41540442   -2.30874407   -2.12944144
    1   -2.23847386    8.18292492    2.08527111     -4.19855400    2.05311942    6.32599370      4.31476426  -20.83516333  -19.22089853
    1   -2.75260190    9.19403114    3.14036090     -0.28711078  -10.98218838  -22.09751280     24.05728865    3.14304835   13.33396958
    8   -9.79570055   -2.49179703    2.62597122    -11.52812111  -21.51356266    8.80501683      0.88498314    2.33046063   -5.83075108
    1   -9.56641772   -1.60890560    2.37138020      6.97250540   13.70778281   -7.26204109     -1.42558135    6.74314101    4.88118795
    1   -9.21913887   -3.05473426    2.08939760      2.82567733    2.25704421    0.84522695     15.88842008   -0.19528925   21.79850069
    8   -6.06908369    8.40821141   -3.91354167     -7.66716955   -2.48007338   -6.38792734     -1.82695529   -6.28709538    2.48565258
    1   -6.11291990    8.62253498   -4.86495017      6.39630882   -5.62047728   -0.56445897    -32.76832897   10.14773706    4.39248420
    1   -6.19806574    9.29531637   -3.53663929      3.95131064    6.86321459    8.33674094      9.88887512   11.28609530    2.16817789
    8    3.29872078   -8.78114551   -3.88244836      0.77136797   -9.22332716    7.46239016     -3.58883059   -3.13188164   -2.32357506
    1    3.68656530   -8.21452090   -4.57160861     -2.80659849    4.24245845    0.36165642     -8.70005728    2.07254543    0.16403856
    1    2.39463844   -8.44093493   -3.73038373      3.96752171    3.68330519   -6.11510809     -0.53288425   33.12493127    0.88186630
    8    8.13247952    0.27487514   -6.12583728    -16.22109340  -37.50149908  -27.06141625     -2.55308905   -1.56114499    3.87053629
    1    8.30366894    1.17456144   -5.92423373     -0.33538939   25.54896980   -0.54777926     -2.82498415   10.77660787   -8.09613902
    1    7.47659347    0.28817387   -6.90991927     20.70669645    7.94827338   31.61363547     -7.52534934  -15.85698843    0.49208879
    8   -0.83284735    0.40514446   -1.09269460     38.35140711    9.67446546   12.97241736      4.84780964    5.98150528   -5.51633722
    1   -1.00961769    0.71038729   -0.18892974     -0.51011559   -2.02246379   -1.06032406     13.56981371    1.09634322  -22.14635467
    1    0.17600213    0.33395981   -1.05254584    -29.96499220    1.23397924   -7.36829025      6.23333539   -3.66091527   -1.89526552
    8   -6.32370685   -9.22501312   -5.73060277      5.48472097    0.50154759   -1.12242758      4.16284760  -11.37538209    0.45173931
    1   -6.91576427   -9.25328518   -4.96850909     -0.45168719    0.89727181   -1.21621829     12.31224726   27.40612069   10.19403481
    1   -6.91718318   -9.32336747   -6.49356132     -7.97291734    3.34532437   -1.40709838      7.99728696   26.01357639    9.25605702
    8   -3.71770398   -2.05683132    7.35008223    -11.35427677  -14.95282171   -4.18529240      0.23602260   -7.20574088    3.33331885
    1   -4.07689146   -1.25669008    7.72842276    -10.63134400   11.06563561   10.61353232      6.39204576   15.35350989   25.48541323
    1   -2.97402374   -1.68360909    6.86694089     15.17641861    7.25736292   -7.99171946     14.93862718   12.98829639   16.96842051
    8   -9.95961613    3.49171008   -0.79886357     30.05341680   30.78499149    5.83401645      3.10569242   -2.41262281   -3.71156856