 BEGIN_INFO
   #
   # This is a XCRYSDEN-Structure-File
   #
   # aimed for Visualization of geometry
   #
   # Launch as: xcrysden --xsf .HICOLM.XSF
   #
   #
 END_INFO
 # estrutura final
CRYSTAL
PRIMVEC
      22.19283919       0.00000000       0.00000000
       0.00000000      22.19283919       0.00000000
       0.00000000       0.00000000      22.19283919
PRIMCOORD
  927    1
    8  -10.66004890   -2.42693669   -4.20838835     27.56558846   30.45443438   47.84559411      4.39993404    4.40805142    4.45309468
    1   -9.98307773   -2.30379671   -4.88937508     -0.39850005   -2.07286847  -12.79150165     17.24435397   17.17218244   16.72718657
    1  -10.19665066   -1.97881494   -3.41763477    -25.81331193  -21.62524164  -33.75363013     16.20876839   16.37583660   15.87760880
    8    2.85008276   -4.04970416   -0.85941863     12.54235908   63.16004717   25.08879408      4.36250837    4.49265479    4.39383266
    1    2.73437701   -3.85890127    0.10974872     -1.14098323   -9.94550286  -22.42365215     17.20344109   16.84682108   16.34878715
    1    2.61196757   -4.94701641   -0.95734400    -14.65814553  -47.35433628    0.16999583     16.65225075   15.31890523   17.26089470
    8    2.30663798    4.93013825   -3.64893474    -19.90892495   22.28360685   47.29601411      4.27794764    4.38795001    4.45141567
    1    2.83627352    4.19756531   -3.95216602     16.76696744  -21.17485614  -11.06765306     17.94280839   16.38269751   16.80152365
    1    2.48220377    4.93808149   -2.66876945     -5.11371772    1.34521220  -38.05695790     17.04915550   17.30565523   15.70206085
    8  -11.00326389   -6.06200660   -0.44667266     10.58151055   45.97683772   32.93675345      4.35710939    4.44787568    4.41431369
    1   11.06556688   -6.27104532    0.50845456     -2.15773139   -9.76877860  -22.41749900     17.16468486   16.85464148   16.34071941
    1  -10.74778573   -5.09214095   -0.38445242     -8.41262057  -34.74125371  -14.32726497     16.91167468   15.84098386   16.67193658
    8   -8.29311202    3.76670740    0.02155005     22.67162169   28.04578907   22.15178691      4.38762091    4.40073591    4.38648864
    1   -7.76877329    4.49871542    0.44513084    -13.17526728  -17.63013613  -16.78330109     16.72360604   16.55577405   16.58110541
    1   -9.11985755    3.82267855    0.52253839    -10.16589051   -5.47077662    0.40271929     16.84100867   17.03179129   17.27016059
    8   10.21535254   -8.72110216   -6.61871174      1.88302542   16.53510891   28.89576015      4.33475649    4.37155462    4.40307036
    1   10.49844787   -8.94965490   -5.69546648     -1.53860446   -5.87623274  -19.38200423     17.19489286   17.01455926   16.47451674
    1   10.00604715   -7.76456695   -6.49840533     -1.99281507  -10.22677748   -8.84540146     17.16877625   16.85015850   16.89954568
    8   -8.93163416   -4.73948359    5.03936857     20.26587227   42.96215035    6.98269580      4.38075562    4.44101872    4.34864107
    1   -9.33115672   -5.57244618    5.25609198     -7.49697631  -36.29411545    3.68674069     16.95202093   15.76991549   17.39860559
    1   -7.96995320   -4.89857398    5.13747810    -11.23097842   -9.30234736   -3.44338604     16.81191287   16.86321406   17.11248239
    8   -8.26223359    8.88411992   -6.70967796     51.85571575   13.36926597   46.22974812      4.46302680    4.36336366    4.44953533
    1   -8.16285546    9.60883240   -7.32322404     -6.23672924    8.38687568  -15.18465116     17.00271387   17.60929219   16.62414954
    1   -7.53411697    9.12468608   -6.03201625    -39.38835591  -19.83573712  -31.28450837     15.64932470   16.44839006   15.97487298
    8    4.03066901   -3.78783715    2.90988829     29.29285721   55.60143552   26.62818174      4.40446109    4.47326440    4.39812290
    1    4.00941396   -4.69832393    2.68215179    -18.10219612  -33.86817247  -19.70533374     16.51517978   15.87705329   16.44818520
    1    3.20994978   -3.36378124    2.61126704    -12.04880836  -21.40022662  -11.85921308     16.77424539   16.36861902   16.77175952
    8   -2.15303776    5.22463387    4.73301995     48.91721655   26.04272945   -9.98935443      4.45620663    4.39693120    4.30464766
    1   -2.38577354    4.34427989    5.01356495    -21.60969554  -16.91541389    4.83816136     16.37027158   16.56869451   17.44566836
    1   -2.95393751    5.71864068    4.64636225    -25.67788502   -4.89856433    1.75164145     16.20028202   17.05002944   17.32219554
    8    8.68230711   -2.59201190   -7.75420749     20.22842348    5.88207594   37.50829706      4.38106014    4.34510514    4.42576887
    1    9.66681223   -2.72541440   -7.72387085    -17.42440431   -1.90202760   -9.23852273     16.55239712   17.17420336   16.88144117
    1    8.50905797   -2.38546154   -6.79595854     -1.79402096   -0.69939512  -29.11483950     17.18519748   17.22828366   16.06981651
    8    1.15591133   -6.29717074    9.56652315     45.22368834   24.07378701   12.91586763      4.44584724    4.39079158    4.36256607
    1    0.72354956   -7.09839164    9.29570845    -29.91857487  -11.35688318  -12.08821038     16.04015130   16.81089486   16.76764265
    1    0.60355569   -5.54431319    9.30006296    -16.10021801  -14.68942392   -6.89404424     16.59410252   16.64822311   16.97136929
    8  -10.64446560   -1.64707313   10.40438753      2.32613071   43.67565353   15.29712744      4.33523458    4.44177259    4.37001602
    1   -9.90565490   -1.05343249   10.08170494    -18.09017092  -21.67652579   -0.52158388     16.51741149   16.37639858   17.22874674
    1   10.98342571   -0.98181951   10.91231795     10.50700610  -23.68473077  -19.07170369     17.68945921   16.28610480   16.46706446
    8    0.70436554   -6.57703647   -3.91843686      6.80006052   50.45702710   19.66659458      4.34761027    4.45944861    4.38090663
    1    1.33577337   -6.40326238   -4.65404313     -4.56774770   -2.51967066   -3.30089909     17.06505170   17.15708958   17.11739279
    1    0.61319262   -5.64945764   -3.51762689      1.52216118  -37.20439997  -18.56598355     17.31966278   15.73943597   16.48976997
    8    5.50341201   -7.12375373   -6.10373846     22.35675988   41.17477735   35.96008373      4.38699187    4.43594051    4.42157598
    1    6.04952405   -7.80631227   -5.65689783     -4.03219331   -7.20229682   -9.00829115     17.09421907   16.95683521   16.89055346
    1    5.71972508   -6.31753193   -5.52685142    -23.84094265  -33.87440956  -33.76260275     16.27959777   15.87255559   15.88057236
    8   -9.88747133  -10.40183139    4.99960208    -10.30567938   15.86660998    5.47290641      4.30246640    4.37104612    4.34513197
    1  -10.00379851   10.98997544    5.53977088      5.48721095   -4.85397869   -3.51229552     17.48230354   17.06008080   17.10047664
    1   -9.01306085  -10.51645985    4.58609911      1.91023341   -9.72271968   -1.89672234     17.34166521   16.84794731   17.16960335
    8  -11.08260633   11.05585846    1.75988293     50.49030173   26.15847321   37.15881399      4.45944801    4.39668667    4.42581893
    1  -10.92086556   10.32663563    2.41345843    -11.70634101    1.15090736  -10.84425797     16.77567587   17.30635442   16.80798256
    1  -10.34947474  -10.47467582    2.03205709    -35.47654136  -27.07234151  -23.69411775     15.81222528   16.14980560   16.28845021
    8   -7.50704174    1.69186840    2.11958927     22.39423333   33.11942110   48.51076067      4.38754279    4.41522713    4.45430230
    1   -8.09678367    2.19498531    1.57308650     -9.11230680    6.49051188  -11.00718987     16.88599513   17.51612666   16.81014118
    1   -7.30806750    2.34752641    2.88563839     -9.92112010  -42.09709755  -37.00719162     16.84660912   15.53446633   15.74271308
    8   -2.86011956   -8.51883607   -3.09454730     34.14547568   59.24199780   14.84617905      4.41710185    4.48289212    4.36862810
    1   -3.70324035   -8.92269772   -3.20360318    -25.77282714  -33.08432204   -2.78727858     16.21210845   15.90556717   17.14160383
    1   -2.18966752   -9.21861311   -3.12880258     -8.70806159  -23.57471025   -4.55410318     16.89779568   16.28265907   17.06479810
    8    8.77027038    3.74467974   -7.23899800     19.71189433   -6.48476626   55.30650878      4.38082929    4.31349295    4.47244229
    1    8.05814568    4.03978731   -7.77534285    -12.68837615    5.18528086  -34.63415040     16.74042315   17.46083156   15.83792878
    1    9.43557483    3.37268213   -7.82137267     -2.40111655   -1.82478737  -20.43730129     17.15171037   17.17790292   16.41669890
    8   -7.77163091    9.44698871    0.70234515      5.78174785   40.62342903    0.11770666      4.34560659    4.43399727    4.32892769
    1   -7.76150643    8.55043599    0.41335168     -5.09322211  -28.76199039    3.88128789     17.04112489   16.09236222   17.41991563
    1   -8.06847530    9.41978754    1.62918124      0.58015387  -14.02651877   -5.25912854     17.27169454   16.67402682   17.05030717
    8   -5.90717140   -7.65959236   -7.61978641     37.34117442    9.70387526    5.59513525      4.42521047    4.35473461    4.34439456
    1   -5.37847424   -6.95004984   -8.04254782    -17.78597608  -13.22567974    4.12664577     16.53375711   16.71651947   17.41993968
    1   -5.20845656   -8.09703423   -7.05841756    -21.57783257    7.11685179   -9.72242956     16.37740649   17.54680348   16.85726500
    8   10.46532820   -2.98363229    8.30069479     24.88956477   28.67902214   30.82153936      4.39332072    4.40299880    4.40838593
    1   10.97240186   -2.41270013    8.96806337    -23.49196063  -22.73112995  -25.06517089     16.30329760   16.32752015   16.24461256
    1   10.71079667   -3.88193636    8.60109291     -1.76080327   -7.60689571   -5.28083819     17.18293155   16.95068016   17.03703055
    8    7.24435935   -5.53452752    1.93799335     46.53593832   24.41415106   49.75692607      4.44965419    4.39288386    4.45782283
    1    6.83400683   -5.33558387    2.82310587      3.84635782   -9.12202128  -32.14215688     17.41718073   16.88017591   15.93714172
    1    8.22691466   -5.35112959    2.15429683    -43.78082070   -8.19027774  -22.56610368     15.46315070   16.92269163   16.33518625
    8    8.95452388   10.46770704   -1.72038743     49.19069932   41.92518453   11.10217669      4.45611076    4.43795986    4.35856339
    1    9.88106216   10.36247307   -1.35245098    -27.49049873   -3.89597814  -13.29540135     16.13958466   17.08862704   16.71251302
    1    8.58941441    9.61967238   -1.66784511    -12.32060921  -37.57007896    3.91072340     16.75334307   15.72394405   17.41151127
    8   -8.46034405   -1.78129997   -5.84292476     25.47937775   28.77544254   46.63958362      4.39490040    4.40324317    4.44969457
    1   -7.96999577   -2.40186748   -5.22980285    -17.27259808    3.24931604  -22.27548885     16.54639027   17.39179499   16.34158297
    1   -8.17109830   -0.88941215   -5.45403555    -14.95228547  -33.71273997  -25.19182615     16.65012444   15.88137216   16.23020692
    8   -9.32977695    7.38211304   -4.42907635      3.44010727  -14.61962508   17.11500368      4.33789668    4.29246870    4.37472596
    1   -8.39432187    7.11584553   -4.53462016     -0.79506631    3.05997839   -0.35811775     17.23475947   17.37698349   17.23491103
    1   -9.47441144    7.98089644   -5.15551718      2.45019635    9.93457982  -13.96872516     17.35717133   17.65911636   16.67758402
    8    7.04353402   -8.91645035   -0.83456321      7.80913173   -3.50637689   29.54115441      4.34867871    4.32121276    4.40537587
    1    7.66161230   -8.96701799   -1.57082803      2.46713950   -1.22307133  -14.65555268     17.35790904   17.20153684   16.65178846
    1    7.64859428   -9.02660242   -0.05713215    -13.64925602   -0.60320358  -15.12067697     16.71265722   17.22474814   16.64778119
    8   -8.62187024   -1.47914066    5.63748759     24.64903052   19.06210793  -21.00938437      4.39415420    4.37835205    4.27591965
    1   -8.78776562   -2.36987990    5.89848853    -11.55699031  -15.93961990   10.07278198     16.78035592   16.61036564   17.66002572
    1   -9.35741069   -0.95604726    5.98464566     -9.89745967   -8.90920459    3.74225463     16.84051425   16.88852118   17.40684513
    8   -2.72492248   -8.57444806    8.72629698     54.20877112   32.68583097   -4.38265762      4.46955203    4.41403471    4.31877363
    1   -3.48115276   -8.04046137    8.47126679    -26.65711844   -8.12232502   -6.25688488     16.16339446   16.91772994   16.99487253
    1   -3.01340603   -9.44727718    8.85096722    -33.34136450  -38.31976813    0.64439944     15.88862722   15.68515663   17.27635327
    8    2.73452064   -8.16680260   10.92509953     57.33093743   19.00643097   32.77906591      4.47766282    4.37784678    4.41430776
    1    2.31593134   -7.53508942   10.35550919    -17.15027221   15.29209653  -14.09793180     16.54955633   17.88709545   16.67570721
    1    3.43795398   -7.57973865  -10.81450797    -38.07811564  -29.65725979  -17.41158013     15.69916507   16.05267339   16.54490605
    8    0.87414172   10.76753592    8.81696047     19.42164369    6.81683864  -13.67116938      4.37911925    4.34847121    4.29394240
    1    1.83996368   10.62993625    8.80300375    -12.10459315    3.03470578   -0.35922846     16.77209633   17.37232916   17.24206653
    1    0.61048446   10.27158503    9.59571467     -3.62820697   -6.90316027   10.69568054     17.10697971   16.96425855   17.69751664
    8    1.27414439   -9.04307470    2.60173664     -6.96986196   28.76427364   11.89952386      4.31154797    4.40359405    4.36169349
    1    1.99555665   -9.46753677    2.13568378     10.29692299  -11.81450768  -10.40472500     17.67895915   16.76764011   16.82070364
    1    1.39076384   -8.09463310    2.36444510     -1.63895918  -17.19652132    2.99872448     17.19127637   16.55922288   17.37039575
    8    0.36134856   -7.29785701   -8.93794607     30.60012573   13.84193300    4.38389653      4.40737183    4.36520090    4.34116350
    1    0.49077907   -6.45253934   -9.43126501     -5.10047047   -5.64425988   -0.63696685     17.05280093   17.02976927   17.22448740
    1    1.27723518   -7.41650405   -8.54271464    -22.61856490   -5.44556649   -9.37316929     16.34450621   17.03331384   16.87215818
    8   -8.61104229   -7.47492304   -7.76343099     22.14357531   42.89064496   20.57624005      4.38548274    4.43999929    4.38318873
    1   -7.63316378   -7.54681748   -7.55942677    -19.66521033  -10.32179124   -7.39712022     16.46495639   16.82435132   16.95255631
    1   -8.88497077   -8.35732259   -7.90143387      0.48597028  -41.53716482   -3.25035655     17.28214003   15.56417700   17.12192119
    8   -0.02291557   -0.88189643    9.41873021     26.52323731   54.90345726    5.82000747      4.39870506    4.47092874    4.34401851
    1   -0.65610306   -1.44677935    9.83770784    -21.58838027  -33.97345446   -0.22740357     16.36926622   15.86405986   17.24390877
    1    0.24240790   -1.27002123    8.59759623     -8.85524521  -25.08485528  -10.89785635     16.88454970   16.23364688   16.82163342
    8    3.41726795    8.84682137   -7.71729293     50.86784025   32.45927069    4.20207222      4.46023571    4.41379831    4.34002637
    1    4.13612993    8.68693427   -7.02529603    -25.92625454    2.35794730  -18.78303385     16.19925979   17.34646801   16.49458002
    1    2.81376350    8.16280056   -7.57684684    -26.19881684  -34.65488405    9.71581844     16.18635829   15.83767254   17.64954485
    8    7.67436349   -9.79474719   -7.53088028     43.13069751   29.57953373   35.33080847      4.44069729    4.40619607    4.42013417
    1    7.38597257   -9.57902833   -6.59141469     -1.36421310  -13.14493893  -28.48237517     17.20289088   16.71604366   16.09274744
    1    8.66032056   -9.57579144   -7.45462036    -41.50616451  -14.89660309  -10.03850410     15.55772541   16.64494768   16.85055448
    8   -9.94893380   -5.45352587   -6.48025259     15.17582223   35.01783548   39.67055187      4.36826762    4.42014178    4.43113810
    1   -9.54885859   -6.24259791   -6.84215133      9.34853914  -18.63936178   -9.78510987     17.63621945   16.49676584   16.85790562
    1   -9.32076307   -5.22739270   -5.72478649    -28.16120910  -15.01277581  -29.65096697     16.11303051   16.63544503   16.05164330
    8    5.99727599   -7.03156298    4.36744750     11.05626935   17.22311724   25.11147159      4.35826840    4.37238199    4.39399440
    1    5.65017143   -7.51160846    5.15346460     -1.81431243   -5.70424318  -17.66210113     17.18036568   17.02444830   16.52372494
    1    6.24003074   -6.15150751    4.76871059     -8.33310775  -16.66153280  -19.27078565     16.91511922   16.59435553   16.47832541
    8   -7.59568724    6.70327013   -8.19987539     32.05617943   46.00288398   31.26881983      4.41188572    4.44804196    4.41024001
    1   -7.87794925    7.49356870   -7.63468993     -1.72621897  -28.83973189  -19.94935802     17.18772593   16.07840039   16.44105264
    1   -6.60299865    6.82139557   -8.15333368    -30.69724722  -11.64495787   -9.07466300     16.00552833   16.78345479   16.88556254
    8    3.83184436    0.34303656   -9.20351652     44.55740118   22.21493605   48.75667733      4.44479836    4.38636060    4.45517227
    1    3.85966499    1.24604969   -8.75807907     -9.59432146  -32.04337862  -20.79800338     16.85570276   15.95422344   16.40507507
    1    3.11540575    0.40433516   -9.78691656    -37.85571951    7.33361496  -29.17647938     15.70738654   17.55385603   16.06312073
    8   -8.34436088   -5.57824340   -9.48736491     19.62664546   10.03391781   -6.81519193      4.37945260    4.35660966    4.31205872
    1   -7.34997499   -5.58386923   -9.54575166    -18.36822358    1.23325838   -1.23660107     16.51468910   17.30090081   17.20602934
    1   -8.50991644   -6.19098614   -8.74283953     -0.10557014   -4.86466294    1.70438706     17.25516737   17.05100988   17.32412312
    8    6.95441190    1.18199675   -0.98431965     34.10822883   29.78945653   42.59801092      4.41750291    4.40603635    4.43911132
    1    7.18873313    0.37678465   -1.42726778      7.55979517  -23.16480148  -15.42263845     17.56198319   16.31543964   16.62749362
    1    7.76099432    1.36942700   -0.40968490    -42.27593843  -10.47574914  -29.88560454     15.53098674   16.82294747   16.03402270
    8   -3.70793388    9.86853451    0.08498228     52.47200312   31.60248374   39.64835941      4.46505989    4.41061444    4.43193502
    1   -3.64051080   10.82051142    0.43053549     -7.07982953  -33.06687680  -18.56493412     16.96131655   15.91137501   16.49404834
    1   -4.53351295    9.84103613   -0.32954120    -44.61942177    7.34042564  -23.04550467     15.43300379   17.55758047   16.31191084
    8   -3.42953979   10.64811517    8.96851685      2.11254042    1.92569279   18.43015623      4.33486476    4.33580353    4.37720184
    1   -3.10828221   10.20661499    9.79737564     -2.26088884    7.36236268  -18.02426473     17.16251616   17.55243010   16.52122669
    1   -4.29511812   11.02314778    9.22743663      0.93115895   -1.14405379   -2.48718572     17.29859628   17.20173228   17.15064677
    8    1.26232544  -10.70606275   -4.76837967     16.52367876   50.62779136   -3.94005791      4.37131108    4.46068973    4.31994059
    1    1.97933523   -9.99616088   -4.85335667    -30.85780903  -27.50044241    1.87186810     16.00053423   16.13036465   17.32999549
    1    1.79062883   10.68398907   -4.70072789      2.76802826  -16.94779917    0.04161958     17.37104618   16.55693414   17.25363537
    8   -5.45116568    3.10455862   -8.42771540     47.82249461   11.03459411   19.66501889      4.45284455    4.35827263    4.37915704
    1   -6.23416217    2.90026636   -8.89672065    -35.45570122   -7.00243682   -7.59281109     15.81838656   16.97023969   16.95316802
    1   -5.70457988    3.16237541   -7.48262612     -7.99942879   -2.05816713   -9.57641601     16.92004146   17.16924224   16.87550625
    8   -5.91901009    3.63769290   -5.69977934     24.68293719   40.40882621  -18.61734934      4.39342217    4.43403474    4.28201506
    1   -6.83552325    3.74010305   -5.40704716     -8.29644283   -3.53876611    5.24103569     16.92182528   17.10685913   17.46555556
    1   -5.62826168    4.58343603   -5.90365955     -9.87285131  -36.06908503    9.93903591     16.84779939   15.77992334   17.66248207
    8  -10.08124010    0.58808688    0.41751026      0.36142185   36.97055927  -11.49841891      4.32978613    4.42599667    4.30095626
    1   -9.16008984    0.37725588    0.20513240      4.81105548   -8.80811620    4.51753730     17.46633710   16.88440318   17.43595787
    1  -10.41403615   -0.19214330    0.85547826     -5.44916387  -23.62154390    8.29536605     17.03136550   16.28666754   17.58836023
    8   -7.56571641    8.50674226    3.24813993     10.60290631    3.05903069   -8.43878763      4.35629696    4.33862577    4.30806830
    1   -6.61466496    8.37276105    3.10387401     -0.61214659    0.82487787   -0.59178516     17.24606062   17.28097354   17.22866744
    1   -7.75494563    7.92167181    3.98579920     -3.89333809   -6.08439016   10.76775333     17.09529235   16.99842066   17.69822844
    8   10.73620214   -8.19031342   -9.25059846      9.04983935   -6.14713001   23.55168643      4.35408280    4.31383689    4.38989440
    1   10.12462639   -7.44309538   -9.16220433     -7.34428890    0.77206908   -4.12797447     16.94356283   17.28936895   17.08873877
    1   10.82368183   -8.49514021   -8.31082814     -5.96438316    4.40940554  -15.55610112     17.00392382   17.43553607   16.62712408
    8    0.16127310    4.83042367    3.25564653     37.60160991   34.09902012    4.51827160      4.42724680    4.41661580    4.34132554
    1    0.78649181    5.62756541    3.28297826    -21.35909407  -29.01053125   -4.35074101     16.38300492   16.08072304   17.07985526
    1   -0.58444299    5.17242614    3.76938796    -12.10414931   -4.81874495    5.86288512     16.75209656   17.06189567   17.49982159
    8   -9.35109066    3.57483380   -2.40461591     35.93554942    8.90594434   55.79129139      4.42313022    4.35206781    4.47328924
    1   -8.87762623    3.70044253   -1.50393176    -19.53412082  -12.74300756  -43.19093589     16.45459522   16.73829706   15.49180867
    1   -9.91057356    4.38637350   -2.42940184     -5.27825350   -8.97621867  -13.03437088     17.03520416   16.88871022   16.72077215
    8   -2.32003733   -1.04627266    1.98492214     -0.72249351    9.26965521   24.15112219      4.32892499    4.35381164    4.39245223
    1   -1.77161792   -1.80918460    1.75483092     -1.05721942    3.76264193  -16.59622460     17.20015949   17.41684371   16.57007538
    1   -2.28686358   -0.45080137    1.19942809      0.79734213  -15.41994756   -4.84003680     17.28360900   16.61278847   17.05720797
    8    1.76554905   -3.04592200    1.54370983     60.16918182   34.81723665  -15.73682956      4.48582516    4.41989777    4.28963857
    1    0.93303975   -3.36538825    1.74829451    -54.89087950  -11.43378377   10.80251378     14.99811614   16.78277299   17.69408724
    1    1.62697546   -2.08474228    1.28988072     -4.09957393  -24.71533063    5.41625190     17.08450896   16.24064690   17.47509375
    8  -10.61612405    1.31059830   -2.16906901     12.48950295   28.98299948   37.11998771      4.36151511    4.40328758    4.42523325
    1  -10.72011401    1.28972679   -1.17658752      1.94702611  -12.08005941  -26.92900718     17.33776856   16.76254309   16.15680933
    1  -10.15682057    2.20280053   -2.26783343    -11.86434846  -24.19276078   -9.26821534     16.77493081   16.27712473   16.87802052
    8   -5.75685274  -10.04767868    9.33538150     73.54056633   20.80980555   43.23759225      4.52017725    4.38221592    4.44155355
    1   -6.52437683  -10.32745372    8.90505635    -56.69236946   -4.86091157  -30.01448402     14.93417906   17.05945378   16.02442382
    1   -5.90287307   -9.09529691    9.53031140     -7.00543754  -13.76365443   -6.06660956     16.96117973   16.70776449   17.00751604
    8   -6.97779319   -5.52527816    8.88184800     51.22027307   38.68343983   21.89389168      4.46191813    4.42873362    4.38605637
    1   -6.83795207   -4.64846261    9.35758339     -4.23434182  -30.47830186  -16.77012373     17.08058738   16.02120877   16.57480170
    1   -7.89744560   -5.60637730    8.84622236    -43.12627444   -2.81134679   -2.31489783     15.49154520   17.14014104   17.15750238
    8    8.32825312   -3.24408040   10.19102759     26.44219903   -8.36450851   11.42837982      4.39786664    4.30865473    4.35978651
    1    8.89429981   -3.81801858   10.77190689     -9.81915823    8.19327594  -15.79036620     16.85803741   17.58744486   16.60286927
    1    8.97778316   -2.91321348    9.53402931     -9.91565314   -6.64496008    1.88748459     16.85107867   16.97721764   17.32888079
    8   -1.92070653   -6.37219070   -4.36524243     20.92785926   14.20023786    3.74796387      4.38212285    4.36681012    4.33921316
    1   -0.96986799   -6.25537024   -4.11089045    -18.07106554   -3.37901967  -10.73858217     16.53561107   17.11299367   16.82173935
    1   -2.22658647   -7.01953420   -3.71148832     -7.93424966   -8.03603601   -5.59559070     16.93188305   16.92424186   17.01731772
    8   -5.12979128    8.92774251   11.05916836     21.76814444   55.38876670   13.34149742      4.38514925    4.47237830    4.36424832
    1   -4.15395680    8.91053401   10.88075068    -22.40367010   -8.83731343    3.78759523     16.34215348   16.89658482   17.41121563
    1   -5.22442367    9.87834992  -10.78601550     -1.79179467  -46.25178549  -10.01839487     17.18784951   15.36050744   16.84643683
    8    2.34813988   -1.12451101   -6.63290875     23.60580868   43.29992033   17.73374691      4.39077868    4.44062308    4.37507388
    1    2.34447307   -0.43014057   -5.88611192    -12.07880841  -33.64051483  -22.70335166     16.76057048   15.88603158   16.33044325
    1    2.99513659   -0.71592897   -7.24255532    -11.60040993   -8.38277217    0.35881717     16.78032578   16.91790038   17.26788168
    8    5.84809364    2.40758448   -3.21105000     57.11611552   -3.14671802   40.70681261      4.47759633    4.32196068    4.43526533
    1    6.68641650    2.56761365   -3.73622699    -27.67724509  -11.24520417    5.95238794     16.11841545   16.78710864   17.50237150
    1    6.22779142    2.12042150   -2.31689583    -21.72919078    7.38281875  -37.25095877     16.36824740   17.55598101   15.72464650
    8   -4.72889920    6.12471096   -6.28575099      3.41151139   -5.99411310    3.66788364      4.33753628    4.31491798    4.33928868
    1   -3.77127358    5.83939329   -6.23504093    -17.77943837    6.99205890   -3.30196795     16.53382648   17.54101939   17.11529555
    1   -4.74990808    6.69007124   -7.08349741      5.13637232   -0.47989956    0.36899177     17.46990149   17.22864521   17.27419405
    8   -4.79615457   -6.98544311    7.73183796     52.37490065   31.36703404   38.38592435      4.46502078    4.40992689    4.42820292
    1   -5.37642986   -6.31949191    8.15678653    -10.62128531  -13.89237120  -13.23446067     16.81050698   16.68879205   16.71339511
    1   -5.34246082   -7.50765099    7.17030088    -39.32162722  -15.76296229  -20.39508201     15.65389506   16.61871013   16.42976650
    8   -5.12618732    6.01915287    3.76822514     22.11607093   36.40514331   17.89295241      4.38601290    4.42267889    4.37560052
    1   -6.03281219    5.77995141    3.94312063    -18.51329760   -2.85710466    3.74014059     16.51006257   17.14366819   17.40443451
    1   -4.98773867    6.82222617    4.35290000     -5.26236567  -27.16085421  -18.69312649     17.03736417   16.15640860   16.50168371
    8  -10.39930057    7.84955699   -1.67073227      0.48933946   36.58882055   20.77439101      4.33073294    4.42315135    4.38388505
    1  -10.39267411    8.78582931   -1.29646976     -6.28196010  -26.78876020   -8.24100631     16.99997479   16.17356442   16.91856773
    1   -9.73898953    7.92390848   -2.36112512      2.91692615   -3.13831470  -11.52391426     17.37630916   17.13000366   16.77444327
    8  -10.70417252    1.13498846   -6.82755271     25.73646812  -21.37336340   26.47520619      4.39618871    4.27487475    4.39868558
    1  -10.99164479    1.61225595   -7.59507299      0.09615997   13.58349337  -22.14294150     17.26134742   17.80793186   16.34592968
    1   -9.73831149    0.93911338   -7.00636504    -28.88971626    9.13090690   -0.43837273     16.06704869   17.63035984   17.23313045
    8  -10.59591752    3.42906110    4.42209624     66.02642965   41.48158338   26.84244607      4.50005909    4.43715217    4.39906233
    1   11.09085173    2.67278615    4.62344549    -22.07647869  -40.70935495    9.58995252     16.35354696   15.58525122   17.64520809
    1   -9.86802085    3.42060593    5.12890251    -42.25574786   -3.52396730  -38.97667323     15.52321436   17.10526761   15.66077988
    8   -2.49924039   -4.10090337   -1.76418819      7.19304209   -5.75689220    6.91603984      4.34835417    4.31487914    4.34871970
    1   -2.94581520   -3.29968873   -2.08007052     -1.72098348    1.75491334   -6.51855263     17.18269152   17.32706066   16.98023718
    1   -1.66207610   -4.10617682   -2.26856359     -4.04911847    2.17796158   -4.48525266     17.09181344   17.34535781   17.06086127
    8   -6.95631108    3.60724956    8.62221362     39.56684404   21.50030449   44.29794774      4.43104680    4.38487807    4.44380965
    1   -6.09192257    4.12652067    8.65713526    -31.12594668  -22.83488564   -5.26516479     15.99171244   16.32436632   17.03480654
    1   -7.12457834    3.51922333    7.70890857     -2.29927638   -2.30927771  -35.12674971     17.16372675   17.15945090   15.82730329
    8   -3.82016905    9.92227841   -3.52024257      9.03579368   -5.96591054    6.42744181      4.35233239    4.31519581    4.34628845