 BEGIN_INFO
   #
   # This is a XCRYSDEN-Structure-File
   #
   # aimed for Visualization of geometry
   #
   # Launch as: xcrysden --xsf .HICOLM.XSF
   #
   #
 END_INFO
 # estrutura final
CRYSTAL
PRIMVEC
      20.77981749       0.00000000       0.00000000
       0.00000000      20.77981749       0.00000000
       0.00000000       0.00000000      20.77981749
PRIMCOORD
  927    1
    8    4.59748865    2.90770947    2.16422777     -5.03488886  -20.14323297  -25.30952598     -1.25906114    2.76238119   -0.04058773
    1    5.24546750    2.77037115    2.87271456      1.14837809    7.94011353   14.04111078      5.24083555   -3.76140888  -16.67882648
    1    4.33567898    3.82063952    2.26629904     -0.77425925   17.45868540    9.69704579     14.25663840    3.95863574  -11.35454974
    8    9.06598445    7.91534136    1.30416293    -36.84917935  -19.04619818   -6.23216798     -0.88185199   -0.88430461    1.89653977
    1    8.35768753    7.19118883    1.42555615     27.11443898   27.74472108   -2.41656940     12.99023255   12.76689547   -8.61482275
    1    9.89413045    7.45855021    1.48624885     11.24767085   -7.26006036    4.87701054     -1.18136335   16.23967536   -8.74708204
    8    9.87165104    9.83439823    7.47238222     17.92576784  -18.96755782    1.85501231      1.31889684    4.32524073   -6.01426760
    1    9.91122494   10.32088257    6.63730744     -5.51264840   11.30165928   -6.82764460     -2.97781613  -15.61252820   -9.28064347
    1    9.19016118   10.30666411    7.97743172    -10.70273430    9.25184197   -1.42796956    -26.11240554   -0.52781875   16.07549674
    8   -1.41596909    6.36282372   -9.31245445     -0.62735578    6.00917180  -15.48482761     -1.84509602   -0.06841196   -2.37163061
    1   -2.01575338    6.77056844   -8.67284956     -3.35021481    1.08514733    9.66951362     21.11686741    3.27430156   14.55290618
    1   -0.65653965    6.13631733   -8.74435442      3.26798166   -4.47797322    1.69248933     -7.27937982   17.85024723   16.89516663
    8   -9.30992478   -8.89341906  -10.35765181    -21.98272436   -0.33162651   11.32170082     -0.31948855   -2.44737168    0.61305863
    1   -9.12683800   -8.47893395    9.57581957      7.72253571   12.99147554   -5.34030309      5.44369306   18.26481286  -17.37158652
    1  -10.18225489   -8.46493895  -10.12910534     10.88005049   -6.81087857   -1.18642576     -4.43447588   10.90302516   -9.03371880
    8    4.92756424   -1.33586703    6.11092459    -22.91812590  -15.90779245  -13.98663790     -3.76292225   -0.56610361   -0.24358979
    1    5.57211664   -0.92257275    6.62910265     23.77499502   30.95205531   23.05363818      1.40940586    0.60657683    2.60352040
    1    5.33603813   -2.21073098    6.14262680     -1.63581647  -11.65339886   -9.11392481     13.97312952    7.88910211   10.70486938
    8    3.52870681   10.02675262    7.43248279     49.40199842  -42.17977511   -6.85256129      2.56643529   -1.74864389   -3.86702368
    1    2.69069282   10.07171564    7.00713077    -32.62756989   16.62134179   -9.85247826    -19.18599798    9.38613102    8.73239308
    1    3.46540193  -10.12055297    8.13263748    -11.04666712   22.61857730   17.15230934      8.80496116   16.26992624  -15.08375118
    8    3.51169858    7.39766904   -5.12003256     59.08371930   52.47812974  -43.12793792     -1.60289403    0.17151274    3.92009726
    1    3.76181508    8.35771322   -4.83614994    -20.30947852  -43.98086099   -3.84845472     -9.63389361   -2.96347725   12.03249294
    1    4.13379529    7.37339949   -5.97205884    -40.86556495   -8.90586029   50.97311917    -13.08422762   18.83140420    2.40683824
    8   -2.50689898   -6.07803944    9.19421804    -52.75623750   16.87470000  -33.05322339     -2.05301986   -2.86032582    1.32248099
    1   -2.53169647   -5.29189321    9.73281047     -6.17097971   22.97857984    7.68142093     -0.98647086   11.67453387  -35.85812750
    1   -1.73465240   -6.39334126    9.53175555     61.80333191  -35.59765670   24.40585308     -2.64709949   -1.88214274   25.62253826
    8   -2.34576875    1.86854761   -7.62236591      0.80993769   -0.46133423   -7.71113235     -2.73976612    4.87845561   -0.50055747
    1   -2.71331600    2.47755458   -6.94732790      2.89243900    5.37513779   -5.67806396     32.65995320  -20.73477610   -5.15341123
    1   -2.72437303    2.22365183   -8.47158038      1.86776927   -3.55406609   11.53797007     33.03586725   -9.97891958   -2.39465118
    8    1.40426263    4.91669756    4.68398147      4.83709798  -38.50122366   22.89831270     -0.00096570   -1.61355969   -1.62048800
    1    1.35266331    5.60886857    4.07766814      5.04733670   43.25993525  -26.87837736     -0.58616037  -27.27309057   28.89702940
    1    1.09452615    4.24045198    4.07328563     -3.96182479   -8.58974179    0.80648941     -1.78494243   35.79564517    9.68546421
    8    7.29525153   -6.27967329   -4.92317040     -1.27375228   -2.47509766   -2.66145545     -3.34806312   -0.97462453   -4.76934143
    1    7.96748187   -6.30106998   -5.64648625      0.22768851   -3.39202248    7.20063514    -12.05114841   -9.81633733  -13.38674154
    1    7.05269648   -7.21239292   -4.77335806      6.94567038   -8.21729940   -6.58968331     14.13588474   14.49388247   -4.09103039
    8   -9.00717288    8.90878521    3.58888587    -10.44473684  -22.25852647   18.10538335     -2.89615810   -3.78048885    1.30421205
    1   -9.00894080    8.08934209    3.00640513     -0.92728061   18.74570969   14.40722303     -0.06946993    6.77574544   -9.15808884
    1   -9.32688533    8.54174625    4.48439246     11.83895925    8.48703004  -31.69883640    -10.88333041   18.56518524   -3.22091915
    8   -1.87970525   -8.16957029    2.73753856     29.14760889   -4.04850105   15.70033738      0.20758553    0.98429781   -3.85689284
    1   -2.37561166   -8.90819628    2.38179320    -16.54801978   -9.04795561  -12.96400408     -1.30688234    8.66443775    2.09190051
    1   -2.53930588   -7.46937723    2.71969937    -15.09193361   12.09769196   -2.91863056    -11.70875453    8.74264465    9.71263304
    8   -1.69323279    4.06088798    6.62408934     48.21943209   -0.56146632   58.24864943     -4.04193903    1.57959928    1.26598192
    1   -1.37069147    4.42003453    7.53234738    -27.91293584   -1.43622607  -35.35199623    -23.71463662   -1.77193278    2.33302510
    1   -0.84725852    3.52114777    6.51664454    -24.84891873    4.81029713  -19.67953164     17.66033165    5.83956905  -18.70611922
    8    2.65858829    0.93368541    1.82502986     28.56153632   16.75402854  -43.01027787      1.99217842    0.83466882   -6.27719226
    1    3.29639636    1.69608493    1.84471477     -8.59469357   -9.42631645   19.51591861     -3.99652115   -9.56258226  -15.78364783
    1    2.71759781    0.87941929    0.81756244    -14.48879297  -11.62793145   24.58056019    -10.52489498  -10.00833641   16.80731406
    8    2.29823198    2.40936181   -7.98487156     19.13817558   13.28437015  -13.01595301     -1.16544741    2.59893344    5.33688867
    1    1.66178099    1.77093329   -7.65820674    -13.63418496   -7.81883525    8.06206995     14.47448269   -7.54420825  -10.02479299
    1    2.14741373    3.14709026   -7.35756760     -5.32338821   -5.34805994    1.27717247     10.20887336  -26.99846925    0.45584763
    8    6.25310316   -0.08723496   -7.62470597      6.64382676   13.08334346   -6.35031838      0.77177439   -3.38427599    2.90606598
    1    6.94045128   -0.44850138   -8.23516050    -14.40052176   -6.87124109    9.91653886     12.57794578    5.36549956   29.02284991
    1    5.87059358   -0.88784109   -7.21654314      1.91456293   -5.43895518   -2.49171223      6.41690107   10.95961827   -1.84839588
    8   -0.32334823   -7.17591464  -10.36257163     -4.88614313   20.00106109    4.13627097     -1.64653634   -2.84739854   -2.33882837
    1    0.51889926   -6.96280944   -9.90719779      2.52147015   -3.84172151    0.30488598      1.94088855   13.85514062    1.25887380
    1   -0.13141031   -8.04559399   10.05421803      5.53099202  -15.26397810   -0.46080060     17.36700264   -2.96428311   -5.36668826
    8   -4.23406539    0.16791624   -2.57819050    -28.43950131    9.50238222  -10.12360201     -2.35272630    2.10641234    2.88765722
    1   -4.09082166   -0.34229928   -3.38858720      1.85574631   -6.72557941   -6.85663066     -1.07368221  -17.48638387   -0.85639792
    1   -3.55604512   -0.19520114   -2.04157577     30.63171636  -13.50086439   15.10409903     -3.93354669   -9.23161135    8.89375747
    8    6.93168883   -9.96009482   -6.86134486     11.90821921  -19.24909843  -44.93924668     -6.47790354   -3.01112919    0.95830052
    1    6.37269238   -9.80178034   -6.11810600      0.21277794   17.39059116   31.32276937    -12.74081837    4.90457985   -5.44486347
    1    7.75848350   -9.44362408   -6.74574448     -4.15189352    4.41943937   15.98364852     21.25130524   23.45845908    1.17352107
    8    1.48083914    3.98517782   -5.91607509     76.04064571   -9.11456023  -51.04095477      0.09955444    0.19310826    3.96884076
    1    0.71073088    4.09552558   -5.47722439    -61.13988258    6.13770143   48.24551483     -7.51968799  -10.14550784  -16.67968037
    1    2.11474280    3.57585917   -5.27107996    -10.85343091    7.99622701   -1.54950094     -3.93054108   18.25638333  -13.96329095
    8    6.75145444   -1.08644859    2.96748011     13.12170212   31.54640408  -28.26201744      0.38204180    0.90128959   -1.13096324
    1    6.95238853   -0.45038478    2.18665027    -10.99518740  -26.53622901   29.82396653      3.22665960  -19.84572867   16.51208482
    1    5.79210966   -1.27989772    2.84631952      3.68615674    2.75674624   -3.47060467      1.11652243    6.00361825   14.37492127
    8   -5.43351323    2.18756567    5.03865000      4.93629239   14.01500246   -9.66614450      2.02483752    0.34636691    0.88464740
    1   -5.03134542    1.54772621    5.64476903     10.65177565    7.11320921   -2.01568693      1.18230164   14.97124606    8.80574596
    1   -4.68412793    2.78068323    4.75135418    -10.12040413  -19.75451138   10.03830972    -12.17148098   -9.57862238   -3.62728691
    8    2.50300703   -5.76873708   -3.15279746     -7.55560663    5.13536877  -21.57875129     -2.44786928    0.52244219   -0.99285511
    1    2.21386224   -5.40389947   -4.04955486      6.25488510   -7.28267067   24.21696535      9.09519193   -8.73840333   26.61170041
    1    1.67023052   -6.19010527   -2.84469885      3.31480801    4.67097163    1.56880371     16.00388289   23.63381193  -10.24557583
    8   -3.75081165    2.60617628   -9.92331947      0.87099311    5.26745081   -3.93947870      2.87252345   -0.45771975    2.08994691
    1   -4.26545314    2.00918000   10.25741614     11.69882127    6.56752406    3.56997167      0.41638830   -0.35054624   27.33102251
    1   -3.42247021    3.34124134   10.26668382    -14.26302324  -15.64554128    5.70677599      5.14659350    9.19480892   -4.78226150
    8   -1.02121010    7.85348742    3.87124491     31.23903998   37.87763552   17.94793898     -1.16533661   -3.49721481   -1.28023632
    1   -0.65410353    8.81496668    3.75829076    -24.26053827  -50.77934150    1.40270753      9.69257350   16.24315089    5.47302720
    1   -0.57591094    7.56371852    4.72144295     -9.64010087    5.77481118  -20.95726890     -7.43686334    2.70425511  -17.82329036
    8   -8.76199366   -5.41898082   -1.89193426     -8.20222605   29.70638823   21.48438240      0.87508833    0.91561742    2.64279252
    1   -9.00686830   -4.84318412   -1.07257230     10.98281282  -21.43637537  -35.33040558      5.85207618  -13.35742390   -3.97741352
    1   -9.35606145   -6.15719354   -1.73206026    -10.52074753  -18.08729866    1.37827273     -1.95053597   -2.62878583  -14.67327309
    8    2.70685492    6.01312031   -9.94511432     53.66425762    0.86792261  -27.42121119     -2.32351625    0.86320561   -0.74264338
    1    3.61467698    5.54395158   -9.83061178    -39.79224590   15.89409989    5.99755728     -4.31102418    6.29338177  -11.75779118
    1    2.16723191    5.67473225   -9.25338693    -16.83095609  -16.07001704   26.40869726     -0.03617128   11.26366150    8.16329006
    8   -1.36179824    8.65605803    9.56010332    -14.29220673   28.64037343    5.23634973     -3.37450217    3.39957309    0.89663479
    1   -2.02333289    9.12399446   10.14133700      6.80076458  -14.09541534  -13.38223092     18.67540719  -43.28610367   11.58980775
    1   -1.01426012    8.01556124   10.17197571      2.42322897  -13.57103638   10.68728569    -13.47549213   26.97772052    7.86751257
    8   -3.43646556   -1.54068907   -4.73032257      4.65236621   -0.90743721   21.67351246      5.49291231    0.26344453    1.50759640
    1   -2.47973261   -1.34827867   -4.60555114     -3.23317074   -1.10645731    7.52487500     -4.78453526   18.45357847   14.68615457
    1   -3.47847096   -1.42286133   -5.66561095     -5.02053923    5.00566720  -26.46713604      2.03034302    8.37505582   30.78080145
    8   -8.56399003    3.12153611   -8.53027596      3.01966297  -14.39227998  -26.83056509     -1.79779679   -2.58539836    0.30878437
    1   -7.62100830    3.29524041   -8.32547752      1.17343445    0.39937730   -1.66548324      5.67798829    1.44845274  -14.04785083
    1   -8.98037730    3.44587371   -7.74191124    -12.31330573   13.95405351   24.21717449     -6.95069940   -6.27618421   12.78087638
    8   -3.00009245    6.05965979    3.12342098     -4.36422200   51.97264426   74.22320733     -0.71851574    2.14306870   -1.04552471
    1   -2.29748965    6.75821530    3.34576416    -21.08797329  -18.56080472    0.44857503    -10.16297843  -22.82404514   -3.27258373
    1   -2.68015977    5.79142658    2.34260603     26.14842668  -33.09523320  -71.35011253     10.27832620  -10.57474163    7.76401776
    8   -5.04289565    5.75909250   -6.85672207     -1.88925614  -42.55006810  -10.85151452     -2.81963440    3.54088700   -0.13788155
    1   -4.34594433    6.28467729   -7.24209364     11.70144960   21.51664939    1.20297542    -20.97506560   -7.97576296  -14.20304625
    1   -5.49580790    6.34397859   -6.25289171     -4.87870077   21.44122453    7.75178312      1.68090718   23.44260855   -9.66161157
    8   -1.06525438    9.17197991    6.88384121     -0.83705529  -31.89031446   -0.03227369     -0.13129931    0.02880961    6.79818548
    1   -1.31185681    9.09623895    7.83556408      4.02413242   -0.19638626   -2.84210869      8.48171260   -4.73095041  -21.11577915
    1   -0.88018759    8.19634871    6.68050912      0.01371383   32.65257214    4.45266572    -15.84031476   -9.45351986   -7.47150563
    8   -9.11877461    6.84972083    1.82260424     -8.25752856    2.01476964    0.17462251     -1.52851902    2.30905333    1.12451992
    1   -8.27333920    6.89720439    1.35371195      8.50975217    0.55319531   -4.89371655    -16.56437717   -4.91194315  -19.28774003
    1   -9.00721131    6.01821835    2.29625607      1.49062008   -9.83489285    6.08207006    -13.87780168   15.46778448   -0.86859528
    8   -3.81488059    9.34214336   -9.75125734     15.12793116   -1.28366011  -45.96455167     -5.52934223   -4.05374119    0.18505041
    1   -4.24645808   10.20327276   -9.96566521     -1.80948466   -7.61131150    5.89353285      5.97786795  -10.40791800  -32.41449450
    1   -3.89415267    9.33430371   -8.82809185     -4.75868652    3.52777100   44.49197835     10.42639836   -5.38961963  -22.95761922
    8   -8.70182023    9.64768833    9.06300095     -3.27156510  -37.70839572  -25.34196548     -3.85041200   -2.96981027    2.11141208
    1   -9.48034792    9.45117465    8.46621640     12.09476321    7.77623556   13.34475598     -1.08449614    5.14498325    5.44952182
    1   -8.98686907  -10.35639902    9.50897819    -14.90314481   25.45344543   19.86355714     15.28580716    0.57742589   11.52549219
    8    0.38206130   -1.11464891    4.65172970     -7.36830924  -32.97720594    9.00598713      1.80432063   -0.41563851    1.05103571
    1    0.35392050   -0.32240471    4.13578897      4.03091757   21.85543830  -10.14924418     -1.78902179   -2.50216938   -1.79569259
    1    1.06396243   -0.91196146    5.31527518      5.24312562    4.25497296    1.58369533      0.92208325  -14.18739995  -23.70721865
    8   -4.42228379   -9.20327668    6.62267771    -27.10698361  -19.34487964   13.94185649     -4.07650185   -0.01769323    3.20905977
    1   -5.10686289   -9.86130939    7.00952050     23.53540296   26.55108941  -12.10531381     -2.44421240   11.99239694   -6.35684729
    1   -3.84884502   -9.82743997    6.15408055     -0.68744569   -3.45725468    1.46363198      1.95184364    1.81632572  -28.15218890
    8    0.67264592   -3.48832577   -9.04222051    -30.72399609   -3.19488534  -45.27966813      2.27877192    4.18078700    2.81051619
    1    0.92418792   -2.81489829   -8.43748299     12.59003279   20.19720190   29.19544172    -12.99730994   -1.41960328  -24.31886362
    1    0.87687570   -4.31987540   -8.66176038     12.13702341  -16.40355501   20.67613970      9.12798757  -23.00043798  -11.77607659
    8    2.25079916   -4.92717479    5.80082739    -44.03144304   10.45895244   -9.89149970     -1.08812163   -1.20441929   -8.21608450
    1    2.62937217   -4.92800977    6.67633878     13.04664112    0.04313949   15.85211889    -22.26442774  -15.07945230   -7.42384132
    1    1.30610375   -4.64926943    6.02563823     29.31758151   -5.12506709   -5.83421923      6.63010034   12.32318175    5.79669265
    8    5.06009971    0.85528426    9.65659045    -24.54377169  -14.50905205   13.31057985      0.06993373   -1.88533007   -1.37461932
    1    5.50130711    0.69242498    8.84353376      8.09106160  -11.56639413  -35.57614972     -4.91696623   -1.86042668   11.36064599
    1    5.73668338    1.41647900    9.98946437     19.40617693   24.91922278   22.93701262    -11.05912159   14.84207414    6.25109203
    8    8.95072322    1.40944894   -3.96502540      6.41531993    4.54330636   22.57213681     -2.97417513    1.55275019    0.66770652
    1    8.52510752    1.50685365   -4.84177990     -6.16834359   -9.26098765   -4.33780895     25.70852168    7.78215801   -4.41395812
    1    8.25520828    0.96635227   -3.40455561      6.82613286    3.48272296  -21.79343762     11.67228789  -10.19710321   18.13722915
    8   -9.93896865    7.74547111    5.96525070    -16.46099623   15.83462064  -13.43465659      4.67867853   -0.19261196    1.16906370
    1  -10.31876835    8.34768053    6.65461386      8.32843216   -7.76131865   -4.13301368    -13.02396661  -20.15199745  -22.28578500
    1   -9.40142077    7.13325409    6.46520034      6.91034604   -5.57480348   15.08269560     -3.59837043   -8.69456982    8.94724832
    8   -8.68637976   -2.53631586   -9.16703463    -17.64032854   -0.90546604   14.90215667      5.10757491    1.83375312   -2.41239819
    1   -7.91660306   -2.49724840   -9.71635736     22.33753308   -1.98916033  -21.12379836    -17.60199083    5.09714774    9.98975958
    1   -8.33256712   -1.98081661   -8.43996036     -5.54041176    2.28169984    6.39734998     -1.14295181   -0.19971200    7.38852009
    8   -7.64341334    4.66695838   -3.81190359    -29.15650262    5.48703823  -12.36944997     -4.20770248    0.19062034   -1.05022158
    1   -8.40937530    5.12360054   -4.27456025     26.94671805  -10.45496116   14.58898376    -21.87163099   11.16049006  -23.68867833
    1   -7.13684592    5.41268568   -3.43890759      0.00672361    3.56061880   -2.40289001      7.19243976  -12.70831151   -7.14353868
    8    6.21498277   -8.83954445   -4.46442636    -14.67607614   22.39479374   -2.29271362      5.49343808    1.07238817   -2.95546306
    1    5.50338741   -8.38765725   -3.93491772      8.42812050   -7.79193912   -8.52763460    -24.16677450    5.31459991   15.57510270
    1    6.34516030   -9.61935269   -3.90818763      4.23011816   -7.41717316    9.86321652     -7.19099565   -8.64118639   24.72249159
    8    3.72804581   -2.33826200   -8.67572929    -22.58125428    0.63143081  -19.45387064      0.80537672   -3.21005548    4.40111707
    1    2.90844153   -1.91673258   -8.31063245     12.08158807   -2.49671245   -1.52712288    -17.56933691   20.49457188   -1.50116911
    1    4.24180728   -2.51029262   -7.88075113      8.43933022    5.53239710   17.73444672    -15.89565327  -10.61859194  -28.01088867
    8    9.67508105   -3.62789895    6.80637320     24.70625015  -21.92191553    2.68920897     -5.69518962   -0.19227355    1.21947770
    1    9.30593008   -4.53647711    6.92506933     -7.32931760    7.22819231    2.56224487     12.08713158    4.68825500   14.42738499
    1  -10.13542123   -3.88456945    6.91689443    -23.27349228   10.74749259   -2.67339327     -2.60810135    1.79890961   17.77077565
    8   -0.97436752   -0.66129318   -3.89776226    -15.50390388  -53.05519132   19.19364663     -3.51564619   -4.30858666    1.89947305
    1   -0.70170193    0.22037460   -4.05034577      8.47325835   41.39902054    7.49475682    -19.50497452   10.54704220  -30.39786471
    1   -1.16102677   -0.76220187   -2.90470511      3.64820037   14.13260610  -27.18063068      0.98888755   -1.77747327   12.65223938
    8    0.24291356   -6.73571590   -1.98808438     -1.56987490    3.78406037   -2.32032740      0.14483437    2.52693259    0.43304027
    1   -0.28501506   -6.55977448   -2.79861329     -5.43073571   -1.48220570    4.48605988     -2.64246337    3.20001205   25.39286772
    1   -0.31773310   -6.26443249   -1.32531466      2.71694281    0.00027194   -5.50823389    -14.48776634    0.52522075  -25.11386759
    8    2.88553645    8.00335277    0.08972362    -42.26709389   -4.31409995    0.53867297     -4.08877083    2.77265577    0.76255840
    1    1.90214366    7.75541432    0.28534185     44.45493801    8.72401771  -10.68347984    -19.22965691   -6.49061489  -12.94269418
    1    3.23151248    7.16412781   -0.26816805      0.71497978   -3.39193128    3.98049542     17.00592995    9.66183870   -6.54962417
    8    0.48672296    4.90337563   -1.65628270    -43.33943713   37.53149342   -7.87893953     -1.96192275    2.00500590   -0.79703711
    1   -0.37105412    5.48779182   -1.80854974     49.07271163  -37.89040895    3.88676687      2.68608423   -0.88099889   -0.69138403
    1    1.14877010    5.31471422   -2.26577085     -6.85234296   -4.64752281   -2.77658091     10.33042804   -4.24379217   -9.77729809
    8   -0.51174094   -7.97574627    5.29293502     18.74292564   21.68864233   35.29869553      1.92480284    5.88327663    1.94868067
    1   -1.08382144   -8.27692407    4.62682560    -24.79758849   -9.68263293  -28.76599756    -13.83103983   21.19533476  -16.83222398
    1   -1.07323201   -7.29128462    5.75123570      7.56465305   -9.05703294   -8.04573104     -4.00778657   -0.95131517   -8.12303731
    8    6.25201170   -7.45419182    3.11428213    -35.87515243   -4.49040639   23.71911007     -3.93494040    4.84525976    0.78737857
    1    5.41662975   -7.79706592    3.56921153     32.30452513    8.46976448    1.24041894     15.95811557    3.14143708   -6.72074125
    1    5.94690899   -7.63943730    2.22689934      5.16413402   -4.40936467  -22.65579098      2.16237940    1.31753492   17.62904613
    8    8.90611205    1.55316979    8.62236656     28.91644706   -2.90233810  -14.78432120     -0.03931707   -1.88743384   -4.95630647
    1    8.23039956    1.74292653    9.27833008    -11.79949459    8.40621845    9.23839331    -10.61892469   12.18575420   19.51611231
    1    9.26044574    2.46263555    8.42912042     -4.51053201  -11.97734370    0.75425358      5.68181487    6.97747289    0.56493799
    8    3.65471907    3.30735019   -4.42990848    -12.51760116    9.15185477   -5.85543175     -1.32380919    2.90740404   -4.70232562
    1    4.56556480    3.47992576   -4.64725617     17.27540348    8.13082887  -14.59764731     22.66913364    6.01200663  -13.77793712
    1    3.82234753    2.67555859   -3.74450931      0.15106665  -21.02731221   20.32287020     14.02738931  -12.71071048  -14.34760697
    8    6.44868629   -8.18979380   -8.82713334     16.54062809   13.64775915    3.60863404     -1.64827103    2.02838522    0.34540984
    1    6.72718698   -8.72582168   -8.05319775     -4.03437635    0.65809221   -6.16373252     38.03883975  -18.64488668   40.67165266
    1    5.60099436   -8.59456467   -9.03215702    -13.32888325   -8.53157243   -4.01503892      7.19135656    1.40554320   -0.30692293
    8   -4.68436484    0.60033882    9.05931752     -8.76954814   46.03161523  -17.82946960      1.39955870   -3.44358147   -0.47121231
    1   -4.46201348   -0.30756392    9.10468692     12.65535843  -31.28684616   -2.23560508      5.88333007   47.40127583    3.06738221
    1   -4.25852956    0.90907075    8.20776236     -2.27207449  -12.30348440   15.62900326     12.07999934  -19.13180651   22.15368182
    8    5.19970313   -2.40389578   -6.41414989      0.73798036  -22.91243620  -53.04542555      1.65596511    3.11400037   -0.55708109
    1    5.19202860   -2.16980566   -5.53551617     -1.15744238   20.17411129   59.92929034     -6.81288775   -0.80023188  -20.07489787
    1    5.28846996   -3.37760286   -6.27011302      1.63462829    4.57484200  -10.03690918     -7.27695159   10.04227004   15.30909815
    8    5.81479261    9.01092701    2.38916131     19.90460725   -2.08276328  -25.99983257      2.24819309   -1.13762995   -1.22526333
    1    5.23313513    8.89867883    3.11750808    -21.39869211   -5.74789541   25.45154632      5.96767773   12.62095847    1.29309639
    1    6.63406267    9.20491424    2.87808983      4.38064930    7.13857392    0.46710456    -11.58028452   17.19586729  -18.60996559
    8    0.06147072   -8.95676915   -6.98215318    -31.21396261   -5.71608579    1.16480429      0.72557726    0.54691877   -7.61437051
    1    0.95367728   -8.99574036   -7.27149906     35.28293786    3.29719359    0.83887212      1.34961262    7.44267757   25.26614471
    1   -0.23194624   -9.78152699   -7.40490454     -1.82862782   -0.27055744    3.39412710      5.51099005   -0.63696580   16.97309177
    8   -0.91167313    4.53643688   -4.64759625     47.37376946  -26.62119119   20.21297172      0.55063554    0.30404740   -0.59627069
    1   -1.11337325    5.42542165   -4.53186493     -3.45809008   52.62106469   13.64554380    -12.25266075   -1.59085697  -17.11445696
    1   -1.64782489    4.34758899   -5.15452137    -47.79465204  -22.48919472  -32.09776237     14.69951403    2.43198727   -5.91981120
    8    5.06498071    2.46582635   -7.68967136     13.24806505   12.67858035   -0.89210211      1.98896503   -3.29795850   -0.93863992
    1    5.26308988    1.52495183   -7.80300626      5.84252099   -8.54222996    0.40271137     -3.39790812   11.33373166    6.40880646
    1    4.11724482    2.46713149   -7.83051464    -18.87219195   -2.50890685   -1.55400461    -13.88992831    7.43203945    9.95796599
    8    2.53693405    5.51759330   -3.32432081    -27.59044957   81.91990917   28.41397569     -0.44380170    4.05810932    2.12436141
    1    2.91701344    4.79865727   -3.66646143     32.75443675  -71.43993754  -34.20028747     20.26027641   -0.49320668   -8.74086230
    1    2.84959420    6.19125412   -3.97838963     -4.66641010   -2.04273461    3.60444315     -8.12267889   -5.99102102   28.03870673
    8   -2.98705287   -3.18757549   -7.64160649    -13.55587978   27.18805287    3.94081214      3.64843834   -1.09845109    1.78710616
    1   -3.93226978   -3.48881455   -7.78837311     16.03128801   18.41101221    4.38401320    -12.23624095   -9.75851700   -8.12552708
    1   -3.05418603   -2.14688832   -7.60123665     -3.90984593  -51.80393504   -3.90891335      7.58360502    1.74837719    7.14250106
    8    9.92661412    0.96984609    5.18363932    -51.75620487  -35.00473487   -6.55437486     -3.16529644    1.42680676    1.41914424
    1    8.88135170    1.00250166    5.12456138     55.68486460    6.18972703    3.16816517      9.83906856   11.97916060   -7.00459731
    1   10.00921783   -0.02990212    5.12257919      3.60851429   20.66787598    0.68127703     10.61349582   -9.43015152   18.04298682
    8    6.96501733    8.87756496   -8.80916427    -25.46897153    5.28298660  -23.75795881    -10.78635738   -1.14803781   -2.31941307
    1    6.74339162    9.67968593   -8.30545011      8.46892614    2.04062021    7.72694051     13.77780759   37.41782605   37.69495185
    1    7.63877500    8.45267212   -8.27170661     11.48755682   -5.33280574   16.05069776     27.40641622    9.90438637   16.43031907
    8   -3.00957193   -3.73237735    2.94467877     18.96364191   -4.24875447    3.46945425      0.84094567   -2.14749644   -2.58455611
    1   -3.12038671   -2.81665610    3.19885776    -16.82019663   19.83418308    4.26308005      2.10673767   37.01482908  -17.06086651
    1   -2.20198798   -3.85893524    3.49461535     -1.79773518   -9.38883837   -6.50219509      0.86073778    2.33154866    3.74940664
    8   -7.52281653  -10.11753814   -8.68125977      9.17672174   12.13343220    5.13493304     -0.54384084    0.61016664    6.45970373
    1   -8.15741366   -9.67190492   -9.27583861     -3.25081089    3.89310577   -3.22541631    -32.28129017    3.94164059   -6.46120869
    1   -6.65383456   -9.80542040   -9.05694287    -10.85111479   -3.57206520    5.13356359     33.25175704   27.33557436   -1.32892239
    8    8.92522753    3.85670079    1.34973253    -13.93241628   27.74589716   27.30470620     -0.72716415    3.95300962    2.79158408
    1    8.55888939    4.39871134    2.11905318      7.92802677  -17.37295055  -25.23874721     10.74178413    1.11216050   -7.27914431
    1    9.37512609    3.17449902    1.86739599      5.85543815  -11.82608103   -4.49061749      2.55184656  -16.56998589    2.78898493
    8   -8.50785602   -4.33490085    7.18289033     -0.44601240  -16.60540606   -3.12053173     -4.33321873    0.52917702   -1.12885684