 BEGIN_INFO
   #
   # This is a XCRYSDEN-Structure-File
   #
   # aimed for Visualization of geometry
   #
   # Launch as: xcrysden --xsf HICOLM.XSF
   #
   #
 END_INFO
 # estrutura final
CRYSTAL
PRIMVEC
      20.78400715       0.00000000       0.00000000
       0.00000000      20.78400715       0.00000000
       0.00000000       0.00000000      20.78400715
PRIMCOORD
  927    1
    8   -2.26266954   -7.72881832   -5.76959466     -7.68327214  -32.01365300   10.95244281     -3.36890530   -1.78210011   -3.67187419
    1   -1.95479717   -6.93605046   -6.31365485     11.37994641   17.20104390  -18.42090410    -14.88398729  -19.82444000   30.87550333
    1   -2.35922307   -8.56000476   -6.39622056      1.06325281   13.31449821    3.09157933      2.51790587   32.25151417   27.68953957
    8    1.02743170   -3.62352126    4.18097019     14.06038185  -29.13799813   10.78567718     -0.40133970    3.72962812    4.05575187
    1    0.28726611   -3.67224807    3.49529695    -10.31289554    8.07682825  -11.79427076     28.37382763   -6.29502473    1.65883051
    1    1.03118974   -2.74486387    4.69880726     -3.82259828   20.46972379    0.98664804     -7.27344148  -30.95901510   -3.96858644
    8    9.77902756   -4.03492150   -9.51750014     -8.86914709   -6.65073241  -10.73321422      0.15706701   -1.48414858    0.20472797
    1    9.35953366   -4.10357598   10.31578044     10.86186270    9.61373904   14.51706853      5.79967657   -1.71988074   16.27902425
    1  -10.00335617   -3.79341040   -9.57305247      1.84592153    1.98967905   -2.61741635    -14.44606419    7.33194551    8.51992780
    8    2.28797413    4.53224615    2.36852878    -28.96405666   -1.86617360   45.10200037      3.00496696   -7.66434308   -2.84399117
    1    1.93433571    3.97929940    1.62846173     -4.63115751  -18.23146224  -33.59276272     -5.96643555   13.59847502    4.70923576
    1    3.09391547    5.06149800    2.13990798     32.10184660   20.86436491  -22.77105881    -46.75244525  -17.41772054   28.01056270
    8    4.17690626    1.76653410   -1.46983279     22.26744636    1.89225835  -13.80342971      0.09515830    7.56704528   -0.52866533
    1    5.15353344    1.83237090   -1.07866741    -24.22406897    2.32666367   -9.80471101    -22.03717770   22.29372507    0.30044530
    1    4.17729499    2.25131594   -2.40012568      2.35573502   -3.31039906   14.75727845    -14.37504685   -9.74069927   21.56763041
    8  -10.36804095   -0.91571087    9.05468431    -25.96399221   53.90816752  -50.50586666     -1.05674420   -9.59281885   -0.78952214
    1   -9.65110415   -0.72734776    9.65080928     52.53598678   14.93523955   45.73649521     -8.40358886   21.50409025   28.77170159
    1   10.16246933   -1.82734119    9.17043137    -21.20177401  -72.76193203    7.76852031    -12.70182428   18.46167596  -24.58900046
    8   -1.81774960    4.48506617  -10.04888068     -6.19856617    2.80320317    9.80271942     -3.19419277    2.05750869   -3.63825846
    1   -1.93420083    5.51467081  -10.06632174      4.63239548   -5.27520091   -1.50851523      0.15013842  -36.81489989   19.10632127
    1   -1.21882457    4.19079468    9.97929387      9.04935682    1.54596214  -11.72847707    -18.03387790  -15.23345912   -6.27052833
    8    8.08769212    7.93418475   -0.73998809    -28.95671672    6.65813178    9.97846917      0.99824681   -2.39957924   -1.23023220
    1    8.43654921    8.79331690   -1.16261709      5.69544331   12.38903974   -6.11381043    -18.31975071  -31.03065626   25.23240783
    1    8.75556469    7.21840751   -0.90709930     27.18730609  -25.44822664   -3.44030034     -9.26062095   -3.90594210    6.07770948
    8   -1.92345442    2.27350222   -7.10285817    -15.97838554   -7.20300848    3.06584757     -0.63715223    0.32219360   -2.06289520
    1   -1.10235675    2.87643476   -6.99386805      4.20556691   10.21524784    2.95688165     -5.18221111  -44.65641954   -7.74745964
    1   -2.82504591    2.75942651   -6.94357830     11.59897336   -3.33607016   -5.77094440     17.47599778   -9.87669555    4.20404200
    8   -8.54360147   -9.64381743    3.25095314      3.09496697   42.28524212   25.59827523     -3.64123254    3.36139069   -3.47613973
    1   -9.00663613   10.32977428    3.57796536    -20.23056191  -28.69717621   13.77901938      6.41530819   49.22263752   -6.38754605
    1   -8.09812653   -9.86148253    2.40463009     20.21012911   -9.47430976  -38.98502090    -19.61699730   28.06181467   38.32897776
    8    4.71907985   -8.69779100    9.21041793     -5.04458212   10.87635228   -9.19442019      3.55220790   -3.11713202   -4.21486994
    1    5.19703051   -9.39389422    9.77245705      2.60701899   -9.05984380   -1.29486168    -18.36494563  -17.20905182  -16.33444592
    1    5.00073595   -8.74288250    8.20258962      3.23661849   -3.30992557   14.10878146     -5.81815980    5.08418757   29.20884584
    8   -4.42053226   -0.80651678   -6.28730673    -12.54955031  -12.67334147    7.77920811      5.36281707    1.08868089   -2.69882163
    1   -4.49131040   -0.35562512   -7.17961354      4.22968076    7.69192317  -15.48261212     -7.83315064    3.26732887   -9.92176559
    1   -3.44770471   -0.80157963   -5.93978513      3.16932925    4.58944275    2.12667653    -36.87508987    5.18951281  -18.62442993
    8    0.25431128    7.84522415    8.87593441      7.87036458    4.60009308  -13.42429022      8.89762973    1.00295204   -4.42304640
    1    0.91028982    8.57274330    8.51640545     -9.86522928   -6.76344213    8.19675242    -34.82417492  -24.12520467   13.76573768
    1    0.44099728    6.98074678    8.32104990     -3.13595807   11.77038061    2.22060785     -0.66571617   33.11528803   20.15223813
    8    4.31861380    3.35862496   -3.78432032     -3.29425159  -68.41906163   10.36142263     -1.69195215    2.27510555   -1.02420705
    1    3.98274528    4.21767332   -3.44013986    -13.16746786   50.59883081   13.46270664     -9.98927450   -1.53001198   20.79972670
    1    4.93652596    3.39709395   -4.55694920     18.88905613   10.82704792  -22.80261489    -29.60524367  -28.81492051   35.31028415
    8    8.09642614   -8.19046189   -4.31457586      3.92336343   -1.61894745   31.30675887      1.43448349    4.55052538   -1.20947473
    1    7.93439447   -9.09025267   -4.71554431     -3.72974349  -22.97461353   -9.85119334     -1.27160353   -8.24294943   23.06905359
    1    8.06159426   -7.50510348   -5.04979644     -4.55939467   18.06714457  -22.67960623      5.85466474  -23.58416368    4.73436247
    8   -3.48783073    8.94571485   -1.85101169    -20.68085321  -23.48400509   40.90163127     -0.96110045    0.89033770   -1.61213180
    1   -3.35164188    9.84135644   -2.27511508      5.28671374   31.40631737  -19.69890765     -6.53911796   -8.73155813   37.16505228
    1   -3.21962575    8.22548876   -2.49669654     11.64918325  -14.35986567  -10.29923276     -3.46134213    2.50704721   24.12211191
    8   -7.13054445   -5.87600638    5.83344371    -37.90853530   34.84068059   -7.82565523      3.38982425   -3.03295382    5.42223139
    1   -6.33503600   -5.63740646    6.36690640     34.83961199    1.20317120   15.39663129     -2.05168563   -7.08753919  -41.88053057
    1   -7.13722421   -6.83508486    5.57848656      2.13266104  -37.03625105   -9.23011909    -13.58233282   36.34734408    0.80817454
    8   -6.62724365   -8.60671386    5.14335491     20.17529005   12.73335916   22.08743355     -4.38131503   -1.69921481   -4.00094930
    1   -5.70942684   -8.70308435    4.69568448      3.11414614   -1.68739046   -7.55470415    -42.11135424   21.76541442   13.80989588
    1   -7.32452776   -8.95157526    4.50877097    -22.19606611   -9.89429198  -15.63700012      5.72225188    3.84416735   21.39543170
    8   -1.57793290    6.58643425    3.59488977      4.14806913  -16.03211342  -12.74285254      0.09860825   -1.77526029   -0.49631140
    1   -1.65792553    5.96220401    2.73092893     -1.89752787   19.57227123   19.13331023     15.67142285   31.57241665   39.22642445
    1   -2.35329627    6.31119874    4.21485647     -4.26466414   -2.64173874   -0.69689645     21.94167818  -21.66831556   -8.62829034
    8    3.98961081   -0.65246773    7.82921664    -16.71023115  -10.73261039    5.12132279      2.09471867    0.48426230   -0.68291627
    1    4.87675804   -0.88759167    8.24800983     11.41378646   -3.89191976    2.85280658     17.20204801    3.31001271   14.94251680
    1    3.32402160   -1.42935422    8.04579367     10.52377039    4.07260923   -7.15638655     18.94263292   51.32318557    0.14904295
    8    1.76725955   10.33603767    1.97755955      6.98981212  -36.16378356   -4.55469321      5.34651131   -4.15784496    5.17304963
    1    1.20454811   -9.91478736    2.61632752    -14.58396799    3.85921792    7.16350710     15.15936659   11.68600318   12.73823406
    1    2.01084763    9.41918671    2.43975459     -5.40069493   12.44601214   -2.24486438     24.59196248   42.34153296  -22.87078424
    8    3.55367483    8.02350209   -0.90912091     -5.46717557  -43.49779306   -8.53029580      4.89307977    2.73381840   -2.87541138
    1    3.04714304    8.84967006   -1.09709226    -20.03079308   37.81163858   -4.52766958      6.45396002  -18.57631150   11.43964254
    1    4.46429437    8.23265924   -0.51195673     18.85960599    9.61740433   12.00036996    -48.87085265   -5.44808809    8.74939349
    8   -3.16179967   -9.66993303   -3.26882884     28.55318149  -17.23439063   46.85673297      1.83666809   -0.60502774   -6.31518034
    1   -4.05219424   -9.36244479   -3.47916030    -54.29271790   17.56009835  -16.28454827     -8.88852606   -5.92533034   -2.61108780
    1   -2.53893950   -9.54398996   -4.01307627     26.67031844    7.38277221  -36.51495571    -18.44448769   -7.21272194   25.00962178
    8    2.86370882    9.15589383   -8.57060552     -4.46540440   -8.00499597    0.38636228     -0.71749370    6.45860337   -0.48899671
    1    3.32851085    9.49642125   -7.72733527     10.81737449    0.78034866    6.22181709    -21.35913176   -6.07632637  -26.53896930
    1    2.40212378    9.95634499   -9.02871019     -5.26633142    1.11703349   -2.69564467     27.19794631  -32.94804236   -9.05274408
    8   -5.72044559    8.99948445   -6.47801621     10.03612436  -70.65634196   38.41367636      4.74370178    1.67220104   -0.63532726
    1   -5.97423050    9.90784103   -6.26894050    -13.96914195   66.16126446   -0.82317039     -0.91933378  -40.23682207   17.52284786
    1   -5.40000667    8.82149313   -7.40133083      7.45260523    5.24456700  -40.61697503      7.02543577   -1.47940067   25.81961875
    8    0.93489780    5.96134958    6.88734814    -53.72563960   20.01413600   -9.75184702      0.43642282   -2.58131825   -7.15466449
    1    1.79420184    5.65403454    7.23972497     54.42726532  -15.76112712   10.49560223    -34.83686618   -2.35548552   -2.56382742
    1    0.94362551    6.12102602    5.86048761      7.77397374   -5.08977961    3.40858499      0.62032921   -8.81412124   36.89403323
    8   -5.63578694   -1.03905631   -3.97627656     12.64647693   -7.76746470    6.40445994      1.94484819    5.08308793   -2.18980039
    1   -5.13510454   -0.90271651   -4.87964891      0.91369217   -1.34319513    1.68627488    -22.03110379  -14.58625915   28.00674590
    1   -6.50491036   -0.52340327   -4.06235412    -17.10474308    8.62986704   -6.21716232     19.51086528    5.19292700   25.68831453
    8    2.39512563    8.27250390    3.56569373      2.45307790   26.02974847  -14.82613458      4.92999861    1.70145024   -3.37533283
    1    1.83225616    7.56334440    4.03282346     -4.59932836  -14.94731775    2.93832166     -1.89487198   22.08638717   -9.67534880
    1    3.39136414    8.03727138    3.61221666      6.11100887   -5.66310463    6.85933914    -17.61737568   19.58749955  -20.80213007
    8   -6.50431853   -2.76616553   -7.03674244    -36.87205620   10.53496325    8.87483943      3.54595330    2.15096950    0.73222923
    1   -5.96865426   -2.12700499   -6.48762481     11.80626830   18.43778204   16.16036937    -16.95270645  -22.47533018  -20.78995331
    1   -5.80293893   -3.32180204   -7.43814184     26.62613554  -28.39464974  -22.89619282    -17.63335317    3.15610832   16.25115256
    8    9.83082378   -6.02548787    4.06126518     14.93905428  -11.21558256    5.13847187     -0.75161778   -0.41658711    0.22091028
    1    9.43711223   -5.17527934    3.61911801     -8.29627455   -0.04782152    7.27685997      9.78147030  -17.79801010    0.69606450
    1    9.11804445   -6.74008338    4.25949781     -5.43855407    8.43004517   -8.13758360     17.18093180   22.20168057   -4.24432320
    8   -0.58517636   -8.31887040   -9.63372254     24.18168686   11.44982336  -12.39763446     -6.31057444   -3.67219248   -0.00964619
    1   -1.00345828   -8.78670093   -8.86952025    -18.05435528  -14.11118309   31.54171210     35.29875745  -22.22871940   -6.87788038
    1   -1.20532363   -8.45096821   10.37685128    -14.84723825    1.65124575  -21.26959462     23.22790202    1.88830827    3.09338428
    8   -2.51319090   -2.55258100   -8.50322865    -20.04038941   17.97546784  -11.15601772     -4.38563971   -0.42855095   -1.02067530
    1   -1.70153882   -3.12387165   -8.41508194     18.28536644  -13.18911663    4.20391608    -11.12506864    9.78459919    1.86628523
    1   -3.37268316   -3.10605319   -8.39734079      4.04058968   -5.82605586    6.25190050     -4.94108669   38.92274050   -8.44350928
    8    7.77104447   -4.12417806   -2.99508823      6.15140814  -23.27309089   21.12544335      1.14385056    3.36822333   -2.55702199
    1    7.19316193   -3.59808063   -3.61777387    -17.15580749   13.30061875  -16.89998479      0.18417784    5.55281065   27.94751481
    1    7.28950003   -5.01233784   -2.72851985      8.09929786   11.42538366  -10.01234580     14.58286113   43.10665894   -1.25135611
    8   -3.20447247    7.68517156   -5.99594236     43.52702386  -39.98032146   34.00732461     -0.85144652   -1.60838749    3.46487248
    1   -4.10354342    8.05324637   -5.98393170    -51.90933087   25.89190712   -6.77778864     35.67404134    9.66530781   23.06751444
    1   -2.65365564    8.05935655   -6.75321418      7.59705529   13.63087578  -26.45603837    -14.97210512  -17.86685689   44.00445779
    8    8.35418112    5.28632802   -3.19434295    -16.50824924   -7.23571577  -29.05644997     -1.51477408   -2.06033817   -1.67037357
    1    7.71009259    4.99286310   -2.48042860    -13.24991332   -2.92950822   15.56404334      3.82855687   -2.95093791  -44.45137314
    1    9.17113931    5.65448263   -2.75100208     24.16781110    9.81237362   18.54399978    -14.48902910   13.06600438  -18.23003680
    8    6.20478422   -1.06338793   -1.19274457    -55.77220239   -0.89215240   17.42011276      2.46887935    1.04830538    2.28845679
    1    6.66297967   -0.72966926   -2.00807667     27.89829561   10.56038931  -28.51682199    -34.10119702    4.31312575    4.28185030
    1    6.83850714   -1.47461455   -0.53884649     29.74003014  -14.05460831   12.41473375    -27.45516026   39.89429226  -21.52022881
    8    1.82623409    2.72801211    9.72857739     31.81677928   23.67502435  -11.13742561     -0.92861006   -7.85645365   -4.24454529
    1    1.12133964    2.31682858   10.28849919    -28.42694422  -19.39265983   11.94865165      8.26597141   -0.82726710   10.04907047
    1    2.06251237    2.19548192    8.87696250     -3.65497349    1.13205458    4.06297950      4.68754205   36.36864874   15.03023581
    8    2.16762525    6.63825773   -5.10569575      3.07672173  -51.24424240    6.86748262      0.58120946    1.38271094    3.15610437
    1    2.19473962    7.64221539   -5.13019143      8.64523325   37.16134454    2.36944459     15.97629514  -53.11620592   -4.04037913
    1    2.79738529    6.25695085   -4.35965671     -8.44125052   10.73971774   -6.99277135    -33.31420565    2.28775354  -51.60677806
    8   -3.46849178    3.31822262    5.97396013     12.37303221   -1.62148258   -1.02349119     -6.57879094   -5.47226351    0.12723352
    1   -3.48641395    3.02381712    6.95098377     -4.64534753    2.55214897   13.43959609     21.21625822   44.80478391  -15.98956179
    1   -4.16884716    2.77399821    5.48079348    -16.22689294   -5.49563746   -9.33465145     24.70964311   37.30076010   13.70647719
    8    4.74548674   -7.28007411   -6.09589246     18.16520266    5.39939403   -9.69386305      0.64002164    4.83440833  -11.35432505
    1    5.75472533   -7.00571366   -6.15994524    -14.49597483   -8.88306746   -0.03395763    -20.69181058  -13.85574695   21.35587605
    1    4.34930040   -7.39282819   -7.05923565      2.02911406    1.54924388    8.74359931     18.03598719  -11.66627780   18.24677775
    8   -5.84502734    2.51611828    4.58741278     38.40582461   25.29973451   50.72646666     -1.25984828   -1.65906952   -6.68435168
    1   -5.66414720    2.20010296    3.68889707     15.75547408  -14.30750344  -55.05663823     33.32866406   52.83072455    5.74234969
    1   -6.81642964    2.40965339    4.70943264    -47.91150056   -9.59409414    8.53980255      2.23723900    3.83819355   -6.25933043
    8   -5.08522326   -8.21670807    7.46970740     -8.08542172    8.72249566  -29.90960923     -3.58046273   -4.67989615   -7.49606490
    1   -5.14552810   -9.13022566    7.93495824     -2.81756431  -10.26165503   10.68699368     15.80239368   32.73307044  -10.48144668
    1   -5.71431421   -8.38302775    6.66125746      1.46546058    7.60874809    4.10809761     20.87541498  -10.12996148   14.65101486
    8   -4.75553727   -0.31363121    2.20891792     31.12530972   40.57967012    6.80500627     -1.75231922   -2.12077180    3.16273651
    1   -5.26239277   -0.75922588    2.92967354    -26.07899556  -20.71537599   29.13060374     29.44220308   11.47256919   -0.94426837
    1   -4.78556526   -0.93173036    1.44852406      0.69998052  -25.59763206  -36.52175315    -13.85328928    2.84239201   -1.77508212
    8   -7.87886558    0.37450647   -4.86565799     17.83184069   -3.95201784   19.67795827     -2.38474527    1.32926369    2.11145842
    1   -7.88803158    0.10605050   -5.84456464    -10.24959492    0.08455541  -10.05136407     -1.00464285   18.34710299   15.23891678
    1   -8.71027253    0.87287580   -4.54716586    -11.60215335    4.29021059   -9.86581225     19.50037799  -18.34385995   -3.44063536
    8    5.03940017   -0.24044412    1.37664594     -0.85848314   22.77685555   40.17318374     -1.42710462   -0.01085561   -3.99903309
    1    5.51343922   -0.17616353    0.51382932     14.60831574   -1.31401833  -33.59158504    -11.84635922   -0.80687384   19.49896335
    1    4.36935220   -0.99363886    1.38595847    -16.16844147  -19.22329060   -3.24197800     15.13813718   25.34447018   25.18354218
    8   -9.99700553   -0.53153168    0.23831009     -4.03139928    3.84614146   -3.52448795     -5.02836769    2.28713641    0.43891037
    1   10.15899628    0.10193071   -0.30262235     11.79086832   -4.97239599   13.01750297     25.38973179  -24.19941606   28.53246644
    1   -9.44285633   -0.09876467    0.99664077     -5.24958026    3.82714232   -6.92106172    -16.54440897  -27.46594168  -13.56084550
    8    3.79684895    3.30219592    4.22137367     30.34405611   48.96169313   42.73054277     -6.10683087   -6.25915773    2.58344958
    1    4.05898284    2.35916734    4.28123339     14.48314319  -52.29504510    2.89478876      6.06412676   17.57193878    4.47762321
    1    3.14903388    3.44188667    3.49991426    -35.19682088   12.16921987  -36.63680059     26.30707238   -6.25600723   42.17186351
    8   -9.21123594    5.93267670    7.63116246     33.88814644  -40.89369583  -10.09748687     -0.16922779    3.79305704    2.22147493
    1   -9.84842958    6.63338842    7.93133058    -26.42970800   31.79739188   10.33062704      3.04709844   -1.84179128  -14.03712579
    1   -9.37695233    5.80368422    6.62629588     -1.35982831    5.04706928   -0.32827206     -4.50509464   -9.09610154   39.29451115
    8   -7.12120149    2.46561255   -2.80737502     33.16862227  -10.59885200   54.83922813     -4.09256720    1.69847964   -4.18550634
    1   -7.66113101    1.85040498   -3.32487823    -26.37767139  -40.72446284  -25.46641528     20.50182606   -2.22378203   -2.00702156
    1   -7.18191347    3.28341707   -3.32363652     -0.59130524   51.77845083  -24.31240667     32.53545867   25.87991428    3.85196453
    8   10.05746362   -1.80266197   -6.26754926    -18.10282981  -45.36930080   39.11302693      0.95152414    0.27588649    2.20672149
    1    9.44241031   -1.01025795   -6.16997739    -16.71848414   25.58720193   -6.58704322     23.83484074  -51.59554435    0.00206588
    1   -9.98892943   -1.69845329   -6.90286793     33.22386914   16.94942105  -31.84941593      0.99176702    5.72987541    7.96607785
    8   -9.68583028    6.23639458    4.84568286      4.70227797  -12.28866120    4.97531158      1.69884029   -6.03555206   -0.54654070
    1   -9.99424852    6.18684669    3.86900345     -3.24094874    6.68130451   -2.08735591     -5.45864588  -10.19626637   19.89448911
    1   -8.73239660    5.84486550    4.82970974      2.54270068    3.30833914    0.53153378    -45.84631987   34.44082661    3.57967622
    8    3.36545493   -6.31654777    0.12557958      1.29399895   -5.69238033  -57.62857713     -2.51955763   -0.51002744    1.58006152
    1    3.54655029   -6.13958371    1.06126686     11.25788856   19.28368808   54.90653402    -32.32019609   -5.24787235  -32.94471178
    1    2.37726568   -6.45331677   -0.04338613    -18.44528280   -4.80472229   -0.38969206     24.24830656   -9.95032388  -34.62467156
    8    9.01229687   10.19415549   -1.84700501     41.31521878   -0.48791446   13.35129423      4.73545609    7.24384590    8.89355707
    1    9.82338371  -10.26867198   -1.24447746    -21.17960105  -11.92550777  -16.06577862    -29.54361632  -22.66340169  -23.06449877
    1    8.26879665   -9.92045228   -1.70938977    -17.87848124   14.22279767    5.21048341     -6.74793640    1.64343449   -4.79917353
    8   -5.56504441   -0.66263850   -1.35189740     28.90494423   -1.95899020  -29.21851707     -6.29210396   -6.28619799    0.85397123
    1   -5.46309230   -0.87810246   -2.37800393      6.31863302    6.45382847   17.17968498     10.91194074    1.83187398   41.12388245
    1   -6.52465240   -0.91138414   -1.23828938    -32.71957563  -11.60083730   14.96785721     -0.54911143   -3.17372290   -2.27854278
    8    3.58109027   -7.57321433    5.12644049     -1.92110129  -10.56635312   37.92125895      4.33710175    0.12721827    0.03245933
    1    3.60894574   -6.55638890    5.05813311      1.39484012   17.70760830   -4.75944104      3.05855743  -48.12625546   -5.89144145
    1    3.56510181   -8.04331181    4.24665294      2.91018698   -7.43901478  -33.41989436    -16.28661471   10.62586015   54.95638638
    8    1.45954816    1.47874285    5.29293968     44.86005752  -14.36765344   21.50627603     -3.47684227   -3.94537778    1.49824724
    1    1.89019689    1.42650540    4.38329651      0.43574545    3.94674345  -21.04702001     -4.55201211   19.62871527   45.24293629
    1    0.49501436    1.69673091    5.24084106    -40.55518224   15.75126660   -7.68791138     20.23824344   -6.65348719   14.41001122
    8   -4.23888773    3.01618616    8.58988360     43.48936360  -23.19733547  -22.45439565     -7.29498586   -5.07635977    4.83466386
    1   -4.99140024    3.63446364    8.46582711    -40.12074236   28.25110777   -0.71146881     -6.97202561   -2.32351447  -28.47966190
    1   -4.00024122    2.85132735    9.55549935     -0.87491810    6.10139063   30.28649463     -7.52076079   14.47664857  -50.41360828
    8   -1.92011493    5.25828821   -1.34075184     57.06079902  -34.71246974   26.90004835     -5.08255742   -2.73639204   -4.48302203
    1   -2.80379478    4.89831608   -1.08098996    -45.28553369  -15.88748500    7.41378350     31.57592485   16.89030831   22.68932527
    1   -1.99065570    6.03518019   -1.90327441    -10.45868417   50.88534672  -38.94559348     -4.59701071  -22.24018097    5.55433589
    8   -2.37004548   -4.08167045   -0.64932786     -5.08089656  -11.91795805    4.97572372     -5.76786736    2.68916764    0.40528216
    1   -3.19923085   -3.82227257   -0.08989219      2.73666932   -1.65379213    5.47395818     -7.12392118  -32.39015839    5.46369408
    1   -2.24125673   -3.32214318   -1.30545307     10.89388212   11.44371934   -9.74499223    -12.32736510   -8.92261906   38.83866120
    8   -0.46032583    3.63898083    7.29424287     -7.91943319   -2.95311334   30.57291099      4.65073304    2.42166221   -4.79792538
    1    0.22995082    4.35407982    7.11243288      8.30504758   18.58481895    1.64774912    -30.62827451  -19.87521497   15.37650449
    1   -0.69892124    3.24444321    6.40974894     -1.95276705  -11.39759010  -28.83394673     -1.38653232   -3.52866185    5.95938358
    8    7.03432227   -8.85619408   -0.95036280     42.43203940   15.85897575   13.53015431     -0.01794436   -1.57549954    3.71176907
    1    6.11700974   -8.99882928   -0.55354738    -25.06781543   -3.19969447    7.56109708     30.76962822   -4.44941499  -27.22406921
    1    7.64980292   -8.41612979   -0.19048979    -19.25174438  -11.65698674  -26.31439998    -46.57445702  -29.44637502  -37.26067466
    8    9.69310581    7.77239291    8.15303796     34.61267416   -1.19787358   44.36241810     -7.78283584    2.16552907    2.09458140
    1    9.96641712    8.77208276    8.17533938     -6.82888636    1.85758917  -13.25074637      3.86536672  -45.58508350  -18.43215157
    1    8.99014959    7.54531181    7.47345600    -21.79815647    8.41920540  -26.58333367     37.26194710    9.89395371    3.06532703
    8    0.82776822   -1.16125725    5.29024410     34.73561070  -45.97341807  -21.93343962     -0.14842812    3.98753290    0.37909438
    1   -0.12906330   -1.11706692    5.53892643    -35.44773165   12.49087907   17.43157129     10.90785301  -25.63629884    7.60888868
    1    1.39063378   -0.34842993    5.45887078     -0.06653993   25.64446586    7.65230222     -0.69500833  -26.22228568  -36.00511957
    8    1.82090118   -9.53859045   -9.78920035     10.49175098  -36.00598835  -14.37639664      0.27233079    0.05373204    1.89808802
    1    0.90061184   -9.12537849   -9.73811372    -19.31219369   19.65095976    5.14940836     28.31998695  -13.88311889  -15.28099468
    1    2.56089708   -9.00729494   -9.37730089     11.92404315   25.74419968   12.92348098     -6.00774410  -28.91329759  -19.43047165
    8   -2.88825394    9.07420783    2.19231589     -1.18662705   10.76804844   -6.67409832      1.40590405    3.12384662   -0.74839791
    1   -2.24266906    8.31600008    2.05694328      5.65569599  -19.17224260   -7.82473886    -20.72008977   -1.58697922   -4.51569365
    1   -2.62422044    9.36536315    3.12891694     -5.09139452    5.16247642   16.70424265    -14.58623006   10.98205531  -46.88565290
    8   -9.69471148   -2.84715017    2.43160453    -29.25640362    2.33826098   18.91442779      4.55350283   -1.64578060   -6.95161863
    1   -9.70514944   -2.01733380    1.87237489      0.57738582   17.90846078  -13.81892411     -2.45064849   -5.97078389   -4.07907776
    1   -8.88941717   -3.40357846    2.22310928     23.89158540  -15.80122113   -5.34068045    -39.51603583    1.83293770   27.79305521
    8   -6.12650634    8.16787694   -3.89691916     -3.01987774  -25.93116257   14.52261708      0.55297535   -1.54869178   -3.57544655
    1   -6.05149827    8.30985497   -4.90614243      1.10980618   12.42115276  -10.96726317     -8.59870898  -16.37797897   50.21986496
    1   -5.81701414    8.95524683   -3.33099670      2.05360570   13.45991662   -5.59520609     -5.47041642  -25.93425067  -23.56416022
    8    3.49306172   -8.66213521   -3.96060428      2.60200083   -4.49666133   11.69088989      4.79428347    3.75420756   -5.60054733
    1    3.93541086   -8.10588486   -4.68465486      3.56216932   10.31778676  -14.71581318    -20.05180665  -16.74683290   19.81574406
    1    2.47172952   -8.70157918   -4.07508714     -6.27395642    1.41618473    1.97631557     39.68431639   20.71781525    8.99547645
    8    8.24758236    0.20919597   -6.04529765     -6.68263873  -23.29560996   -3.60186726     -5.61230460    4.90138784   -1.03951658
    1    8.50811489    1.13992865   -5.84912858     12.72534359   33.18619801    9.12200028      1.10068472    6.64326130   15.38360158
    1    7.50555111    0.26799860   -6.74159345     -8.39391455   -5.16471822   -6.10776228     33.57291056  -13.58849917   14.30212114
    8   -0.59186945    0.59347488   -0.96606141     -8.87528160    3.93525422  -15.94548695      5.03245814   -1.09665599   -0.75514325
    1   -0.40465609    0.52382631    0.03155633      0.65808073   -1.31034788   12.92880128    -11.76951186    2.28321066  -23.03804219
    1    0.29518916    0.56679271   -1.47125887      2.68472883   -2.17114935    1.52113732    -46.41782294   25.40098030   -3.94978405
    8   -6.43846467   -9.06036108   -6.06304207     33.56262189    3.78939393    9.46441999     -5.90083036    1.70275995   -8.59547273
    1   -6.96030285   -9.24020235   -5.23473371    -14.76857383   -3.57103273   21.22002711     25.06979324   -2.81874747  -14.67251190
    1   -7.07515309   -9.03796813   -6.84410574    -16.30550750   -3.95477872  -24.29284727     35.80247190    2.00398010   12.91462656
    8   -3.86667259   -1.74894694    7.42123464     -6.29537087  -28.97692278    5.05613231      5.66671686    4.77826459   -0.02825308
    1   -4.08918431   -0.94073896    8.00738608    -10.12540520   14.78971016    1.39355651      2.16031042  -32.18635286  -18.15080251
    1   -3.04540247   -1.48735301    6.89763039     19.40895349    8.18301436  -16.04131307    -27.16756259  -18.60447181   32.45646356
    8  -10.07415807    3.47847676   -0.99620706     25.25051772   35.77370357   -4.31096504     -2.49771596   -2.06648207   -3.45655338