 BEGIN_INFO
   #
   # This is a XCRYSDEN-Structure-File
   #
   # aimed for Visualization of geometry
   #
   # Launch as: xcrysden --xsf HICOLM.XSF
   #
   #
 END_INFO
 # estrutura final
CRYSTAL
PRIMVEC
      35.17132636       0.00000000       0.00000000
       0.00000000      35.17132636       0.00000000
       0.00000000       0.00000000      35.17132636
PRIMCOORD
  927    1
    8    2.45894658   -8.82153227   -8.69552470   2497.26018485 7921.36354740-2461.89522038      2.73516894    0.16483769    5.13484098
    1    2.54427019   -9.63364861   -9.18348719  -2360.17413061-2723.15220552 4104.83377299     34.09167455   35.91317199  -16.41278555
    1    2.03885937   -9.06919805   -7.87679445   -138.33610606-5202.00674133-1641.19951172     16.49140497   55.47951228   29.14492046
    8   -4.00689374   -9.74700984   -6.79043175   2328.55118798-9198.57432404  345.02006236     -1.67939025 -480.78412277    5.44011452
    1   -3.47561850   10.47037791   -6.69147930   -991.5541447215469.04468813 -164.36879197   1157.40481300  523.17065963  166.88526536
    1   -5.00178033   -9.51467618   -6.92419524  -1353.81505037-6279.61662199 -169.36499545  -1037.14263884 7202.50695988 -158.65806200
    8   -5.33032450   -2.94866779   10.13509794  -6628.78655024-1551.68818652 4181.49095297      9.23331300    5.10756465    0.57037563
    1   -4.51801984   -2.55981342   10.45172238   1970.91212024 -348.11608501-4604.79365241     -8.79633015   21.25981641   75.40697026
    1   -5.17876952   -3.11455366    9.21046005   4654.35681904 1900.78897799  420.96701464    -43.78477688   -8.15575873    9.57891543
    8    2.08253542    5.98046338   -6.87382838   5488.65657970 7024.26269053  192.24638622      1.94116049    1.28687078    3.82694252
    1    2.32261260    5.05933903   -6.88277389  -5433.77001849-1422.63223420 -121.16747630     48.68730250   23.39398597   16.60057060
    1    1.13111031    5.98696289   -6.89151704    -48.82891295-5612.66043692  -83.15122242     14.88693223   49.84823904   16.27996174
    8    5.76137515   -0.69729272   -5.89889575   6336.84910516**************-8686.65761334     19.16057519   -8.82395825  -28.20683013
    1    5.19421524   -0.00282023   -5.56986225   1765.17276531 3013.65318107-3126.80092011    -12.10032576  -26.79226036   68.00288788
    1    6.25363509   -0.29627332   -6.60798175  -2275.77864193 4136.27699132  757.90221505     49.53055386  -43.94850081    4.63237909
    8    2.88745708    5.24871773    7.50583352   5468.04324054 -753.30735218-6012.48878269      0.02085609    4.47050322    8.23602978
    1    2.17593409    4.65407367    7.71854689  -1397.99048444 3060.92547365 3896.00605302     31.26179693  -19.96798688  -28.84742878
    1    2.82169563    5.95112341    8.14851682  -4065.96944453-2306.95953792 2114.23093837     62.70504862   43.15714744   -7.85494129
    8    4.17645177    8.76470493   -3.53297044  -4811.54035961  630.97151177-5840.71567739      8.81049799    3.29882670    9.86599449
    1    4.14469009    9.22998975   -2.70042210   3942.24909126-2291.71173070 1438.29318612    -48.38959562   53.53350147   -6.58212522
    1    4.94429410    8.20357858   -3.47129794    863.59605182 1663.72934509 4407.43811498      2.42368138  -11.64884001  -55.68067463
    8    6.78358552   -0.00553895    9.22061446  18315.74057396**************31541.46818103   2328.60954681 -136.43951378  772.29741301
    1    7.10248140    0.27090182    8.39459824  13978.0438454937449.7128351117818.63406503    524.41135990 1043.90925271  569.08143272
    1    6.95435079    0.62207694    9.79982057  19847.3115344525643.81272479**************    688.19397045  693.45245437 -898.09491419
    8   -5.36901003   -9.30772614   -2.42413143   2941.53863203-4479.26303282 6627.13774655      2.35186424    6.34622943    0.31031310
    1   -4.91005540   -9.09995517   -3.23261038  -4313.06928087 2659.50772943-1776.91368736     54.21820026   -6.91654247   30.46770108
    1   -6.22745322   -8.90700367   -2.51876691   1377.58624719 1823.24335443-4853.73158670      2.82762239    0.46992064   58.60920209
    8   -9.78552075   -0.40850814   -1.44319858  -8506.75959733 1998.79538263 -134.58775994   -451.02636996  -15.92630793  -19.53154381
    1   -9.55093496   -1.40048597   -1.40416936  -7670.15541145-1742.65498816  -98.70811792   6716.72953473 -781.15078657  404.79804022
    1   10.47170291    0.08109544   -1.77381183  15416.62979006-1043.02010744  358.73498876    503.46580945 1097.19643741   10.36958891
    8    5.69892854   -6.44071308    8.42322050  ****************************14910.14308938  51441.9999654625605.3565173221635.12314541
    1    0.29631762   -9.87665232    7.04356633  ******************************************  -1438.28913762 -286.85991115 8464.58817152
    1    1.97185867   -8.59821455    5.61308311  80189.7555591670767.01423841**************   8218.16204368 6330.02776361**************
    8   -4.48252751    7.83120892    0.43647532  ************** -874.4257212556295.67577545   -527.34125992  -47.75617529  206.19114837
    1   -4.64311480    7.00459596    0.00150517  ************** 3343.76698751 1764.25163086   -266.63764455   59.52285549   39.73767385
    1   -5.31235605    8.19101312    0.62648564  ****************************-9570.59103448   -113.46610922 -216.84705009 -106.06316636
    8    2.42218525   -5.76514315    4.23085837   1279.98005351-2735.75700187 8065.84995916      3.32677263    5.37695775   -0.14135936
    1    1.71093522   -5.21972133    3.90951599   2089.12916656 -205.04502618-4997.94672418     -2.32721847   17.69348023   56.37276387
    1    2.96225227   -5.94067868    3.46643766  -3365.48886671 2942.50396862-3065.33973599     43.84586486   -8.71549742   40.06194634
    8   -4.14026527    8.79675836   -9.41135578   6221.81358146-5018.57908188 2737.49337821      0.36258581    6.87332435    2.43591895
    1   -4.86252704    9.15318002   -8.90207281  -1846.86428557 2465.37362742-4347.37972560     32.08582442   -6.96276319   56.04906678
    1   -4.27200775    9.13184153  -10.29256369  -4375.41536756 2556.63698257 1614.62152257     56.25993759   -7.86605301   -0.42402006
    8   -1.36308257   -9.02301903    8.89355302  -3730.09289127-6588.29368980  806.73043964      7.72446460   10.45806930    3.08868441
    1   -0.43003477   -8.90210295    8.73683549   -625.23829604 4768.44151281  -40.76137669     26.59326763  -59.69439882   16.60138584
    1   -1.72321476   -8.14076320    8.92404337   4364.14233226 1833.01748896 -767.77298901    -54.75065945  -11.75112848   28.36711626
    8    4.19207463    3.42532168   -2.80540982    577.75049209 3910.59136788-7035.39371145      3.49020862    0.96135961    9.24462005
    1    3.73872276    2.60649533   -2.63484307   1392.10034240  240.80120492 4895.02694477     -1.72709686   12.07540956  -43.23707856
    1    4.56244634    3.68155220   -1.96378007  -1979.91353899-4155.58656470 2141.01686901     40.01965303   66.61897601   -9.32315232
    8    3.04676734    3.39392755   -8.94916692  -3526.01967392 7681.71229441 -281.41349599      5.98165764   -0.47777175    4.12900722
    1    3.77469740    3.10853579   -8.40259685   -321.17715110-4869.88533093-2116.62080719     19.32552929   60.79103267   35.74233996
    1    2.80393304    2.62629549   -9.45508963   3847.17528865-2813.05408644 2396.32737865    -20.15961498   40.87501117   -7.23012675
    8    8.54567092   -6.09717413   -4.57641331   2271.44508133-7544.56283064 -289.32159546      2.02365612   10.39408286    4.18851030
    1    7.65605138   -5.76002938   -4.53947627   1760.99662605 4653.21969272   83.44233123     -9.21057088  -47.50345887   14.71498086
    1    9.10277911   -5.32231339   -4.57043995  -4031.43339749 2896.31208942  208.45487591     71.24782776  -23.15491320   13.03275630
    8   -9.32044829    5.10395429   10.35134828   3210.43070062 -293.89679892 6474.04842900    -31.79776846    8.46791635  384.40349603
    1  -10.28607108    5.19637202   10.11442911  -2155.86669919  214.89814692 9060.84005065   -294.42009609   28.97167720-5568.62719745
    1   -8.89955532    5.08173255   -9.80536301  -1041.84890558   69.72153107**************    893.73034453  -69.64475856 -439.03598665
    8    0.08105379   -2.79472667    7.94871007  -4756.3361656012302.78542588**************     14.72983064   58.19311723  -27.66715516
    1    1.01636146   -2.97195948    8.01058854   1174.12530308 5930.92281940 -915.94063161      5.58530551  -37.29502244   24.67388593
    1    0.01714122   -1.85879892    7.79378514   6147.50770054  431.44615270  149.43727930    -37.50803418   12.01523996   14.85475223
    8    8.66081143   -0.00946864   -6.23934076  -4646.70211979-5941.61843438  231.48711535      8.54906350   10.23415839    3.17505195
    1    9.61077362   -0.01057384   -6.32455773     12.25213745 4780.33441005   32.54677911     16.64354225  -62.16139627   15.36458244
    1    8.41791995    0.91224740   -6.21147981   4588.59046168 1239.90928173 -405.64393245    -60.09077254   -2.89692611   22.48270155
    8    7.26157873    7.23451193    4.47070679  -5355.61969992-3770.14981779-3411.06899708      9.96783791    8.17270353    7.82711700
    1    7.31191932    8.17707975    4.60970498   4075.46603309 -538.44738024 2196.66942567    -57.16419819   26.48543483  -23.89678792
    1    8.05379663    6.88490228    4.87041615   1293.11377859 4313.28514822 1226.33652680     -6.38627120  -61.86645840   -5.73522503
    8    3.74106346    9.49623903    0.19516042  16910.4920869530068.4497623711440.08911947     27.18147463   81.75349812   34.81814873
    1    3.02360861   10.08975250    0.00037199  -2637.41003715-3017.75317032  479.39177334     57.17486523   64.17989432    7.52514488
    1    3.32371487    8.65205756    0.35631210  -3604.46248105 1588.48786325 -776.82522120     72.99165907  -14.16017992   22.06725211
    8   -0.64373199    8.58844449   -1.70933861  **************-5375.56372937 1723.45231145     -7.47719696    5.41333035   22.84434548
    1   -0.00008558    8.30298183   -1.06575612   1267.41916008 4269.07168559  608.60642608     -8.07652906  -67.21439726    3.23420830
    1   -0.54958823    9.53729321   -1.74616930   3270.24783775 -193.49564570 3078.48518989    -46.57763162   20.81648251  -44.83405029
    8    3.48438316    0.01910091   10.11907434  ****************************22539.05124021     44.00324958  149.74540531-1339.48445195
    1    4.23855451    0.56266059   10.40433185   1343.9393948310047.95230518**************     81.57811926  512.04278966-1182.15503429
    1    3.34458790    0.20585583    9.33568320  22363.9232068919257.07847111  378.58072724   1110.87165861  947.98219009  -20.42173259
    8    3.62799091   -9.57558099    9.09008479   -899.67967786-2430.89082706 8073.53993646      4.35756011    5.25325442   -0.52350640
    1    4.41242175   -9.23908780    8.66477050  -2664.17063107  484.28623541-4583.47488767     41.11778107   11.99532305   56.24620018
    1    2.96268507   -9.57962304    8.41045800   3570.22200785 1946.56929042-3489.11274349    -16.01599298   -1.32656941   46.32587273
    8    5.39900121    0.01288974    8.78674473  11654.47076939****************************  -2292.79014718  -72.86361331 -739.72507868
    1    5.28185047   -0.89253722    8.77218108  ************** 8060.74323151-5818.87478372  -1606.45494569  302.16329316  -96.66741442
    1    6.53225327    0.05448419    8.89405046  -1730.3939920550133.43830906  545.32625892     16.14315873 1466.57565797   98.97960045
    8   -1.23961798    4.17229116   -6.95116424  -4476.03205814 6345.97584634 4141.24783192      5.00461245    1.42842826    0.87689997
    1   -0.30147276    4.09252304   -7.10288429   -847.12181407-4506.84716832-2838.73193872     23.42730278   52.72164727   40.35912017
    1   -1.62501669    3.42727515   -7.39883567   4919.96278655-1606.92439775-1568.45003267    -25.50966949   28.38172215   28.78283300
    8    5.40439785   -8.57747455   -2.83387638  -4724.90176175 1578.69341108-5815.92312300      8.55188234    2.45963121    9.59663937
    1    5.90364836   -7.95751517   -2.30667005   1819.03940794-3646.79368276 2576.77400434    -12.04221127   73.33510309  -23.64732885
    1    5.62303246   -9.43351120   -2.47835300   2909.64389476 2075.94744819 3241.87689606    -29.42770870  -17.91212559  -34.44521695
    8   -9.12994259    2.37585544   -0.00201249  40448.5689598337939.77573943 1120.72283297    574.14438290 1540.75401306   16.49779201
    1   -9.91083424    1.66825262    0.00193560  **************36272.89331468 -111.04559628   -869.98635194  984.01126917   12.02581627
    1   -8.35072099    1.77018843   -0.00095017  32767.2290030842024.94172900 -228.51413045    864.76479473 1138.90833106    8.68044239
    8   -2.46006275    5.57494657    0.87283660  -4795.67062272   91.02486692-6067.52728960      3.71313974    4.65762294   12.78686935
    1   -1.55865482    5.33914000    1.07753901   -754.23317577 1043.94645495 4602.02740773     30.42060548    0.22890124  -59.84568835
    1   -2.84242063    5.83115529    1.70779399   4173.61448613 -866.97441598 2185.06442477    -52.55159546   31.11580077  -19.05943584
    8   -5.62192447    0.45196652    0.05140534   -422.39894599-7805.46572564-4302.76924724     14.16374981  -39.01689029   10.07274622
    1   -4.75573861    0.05971857    0.00362242  -1416.95974255-3720.42607980 4805.01775372     25.74320102   39.61477545  -14.80122444
    1   -6.05586366    0.00536622    0.77114026   5103.25913224-3452.97801882  976.87846695    -17.80297877   37.60821249   11.74407474
    8   -7.55486511    2.59689327   -4.02593385  -2316.54771701-6203.97082166-3413.49410686      6.57467394   10.74505904    7.69854109
    1   -6.74028302    3.07072021   -4.17496654  -1232.16156866 3141.11599412 3287.00292296     37.57761226  -38.67765662  -41.75945491
    1   -8.00407392    3.08948069   -3.34412877   3570.18095557 3064.25116088  130.32019296    -46.96469037  -37.66981822   13.81820267
    8   -7.03386250    3.68927725    6.09184470   4000.77657570 2263.45384920 7709.90827317      2.61403316    3.15113678    1.20474464
    1   -7.87992520    3.98142298    5.76844456    690.41531029-3133.48068829-4657.30838750     10.85448246   33.51621905   41.99315453
    1   -6.70110600    3.10530961    5.41812249  -4680.79738804  856.64210944-3069.64100506     42.23357329   10.07134287   32.31343415
    8    4.92384428    7.56468261    6.95755004  -3276.01809211 5977.21210189 5376.14928876      5.50219446    1.15060410    1.36592802
    1    5.01499446    7.62531368    6.01207577   2204.93545968-5007.20671609 -115.07682318     -0.91385885   53.92709607   15.70655264
    1    5.27114852    6.70716374    7.18377497   1075.31021077 -966.34974608-5263.81191118      7.89211712   22.07495867   56.60992572
    8   -6.04602771   -9.34052891    0.40370764  -5057.51033368 4895.20022688 4752.99923144      6.75909530    1.24170424    1.27922860
    1   -5.21044419   -9.10293339    0.01038209    411.87028253-4902.97981963-2086.46980486     12.73112796   59.96783712   34.08096767
    1   -6.19039034  -10.24472484    0.14628833   4637.50725160   13.22896322-2669.08394763    -26.12890112   14.63183844   39.72298634
    8   -4.27948332    0.24191050    6.03719300  13343.2468054228290.51982745**************     71.45597037  111.92913340  -84.35414158
    1   -3.45512713   -0.00343373    5.63497304   1722.88349545 9530.21279087-2304.76595941     20.10040784   34.66453576   10.67352100
    1   -4.33960963    1.18218495    5.93263466   8804.53699985   61.51491133-4691.93076376     33.65966443   17.16342320    5.99965366
    8   -0.78615979    0.70202069    5.55956318   -992.30407756 8644.25030489 1111.49060006      4.18896432    0.11520967    3.34328104
    1   -0.86028082    0.21480502    4.74614474   1063.54445080-4677.68743927 2700.67921443      7.83283855   49.79012052   -4.74718144
    1   -0.58865838    0.04625098    6.22233095   -131.78135332-3923.37044832-3828.72027657     17.28151994   44.30408298   45.10919476
    8    3.40369796    8.71175876    9.68992259  -2481.26749775 5830.33518701 6041.03821496      4.95738539    1.31796629    1.25996974
    1    3.94495981    7.93812100    9.81664316   -445.79860245-1194.50251693-5358.23736395     19.91123990   23.98898328   54.33127985
    1    3.18788766    8.71177593    8.76336307   2913.05914296-4638.85797716 -684.96865849     -5.04368010   49.07996822   19.72090551
    8   -0.80450592    5.23853131    0.00050758   1070.13679654 8456.80911686 -727.60756220      7.78665320   -0.86235632    2.08270066
    1   -1.53663779    4.63119400    0.00129064   3507.20908067-4250.55336259    1.47598428    -11.65678627   46.92002429   15.35734664
    1   -0.02724113    4.68731658    0.00219266  -3192.50308556-4507.69245324   10.67368445     39.86332726   48.36540149   15.91519451
    8    5.31259476   -0.00712206    5.62355038   -611.33077388  -89.73767245-7645.99775716      4.62784782    4.10918420   11.34228629
    1    4.60780762   -0.00110393    6.26447137   3266.19934323   55.42773804 3611.49651940    -34.79642607   14.27664199  -37.98054813
    1    6.11484949    0.00437707    6.14031072  -2620.71012432   32.98649887 4077.35085705     56.88250762   14.58476616  -46.15187055
    8   -1.03042241   -6.31072011    4.66172300   8239.80420739-2080.19246542 1686.08278784     -0.07190593    4.84500832    3.08087880
    1   -1.49042129   -5.50823059    4.89316068  -4533.30745682-1901.87947903-2361.54364666     50.38221122   31.46709022   34.48403062
    1   -1.67427553   -6.83963721    4.20390299  -3735.71430829 3969.34498378  657.21451195     43.74762229  -14.72173482    9.99795433
    8    3.93114288   -8.99305757    4.52095688  -7010.76916113-2896.81061793 -443.15530813     11.03302413    6.89850017    4.40277290
    1    4.75929100   -9.45842571    4.44388605   2378.24606113 4081.69480103  664.00507264    -21.86475973  -52.12070660    5.31336529
    1    4.17410233   -8.08196543    4.66796552   4618.30967811-1183.61173873 -201.51965060    -59.62051641   36.60843313   19.55333188
    8   -0.42927627   -2.84596352   -7.69323104   2354.15257679-7378.95307556  245.78705796     -1.49844414    9.35562360    4.96835007
    1    0.00844082   -1.99800122   -7.67277178  -4481.11830631 2353.96465786   14.05201906     73.14857287  -11.26925541   15.97494515
    1   -1.35889849   -2.64217540   -7.69704383   1067.34584648 4934.53342241  109.79462143      0.76968321  -46.96057165   14.60122057
    8  -10.22532463    2.88446107   -8.23335874  **************  381.76022913  318.18386124   -170.28268664    8.87558823   11.51807988
    1   10.34426894    1.90053108   -7.66359763  20855.70132089**************27172.86664099   1431.58945046-5342.60719077 2089.71605950
    1   10.29094607    3.95563886   -8.48724052  20688.3578681968060.47441106**************   1365.17154605 5296.81843531-2180.86610411
    8   -9.05635639    0.57991003    2.40373351     42.70761632 8706.43731954  696.10759013      4.07288390    0.03155965    3.69697486
    1   -9.81205477    0.00317316    2.37415287   3345.66952502-4367.02777197 -406.61975844     -8.96855832   46.79313484   18.63713605
    1   -8.30203590    0.00073320    2.34395076  -3370.58775153-4357.92678206 -265.07483123     40.27374734   46.49160730   17.90573717
    8   -4.71847085    5.42085564    7.56619192  -6281.90008945 4480.68934303-2118.76924408      8.95068245    0.39719702    5.72415132
    1   -4.62251512    4.47804575    7.48015327   4606.23574647  271.91841435 2043.89863433    -42.99508133   11.15729231  -11.10553130
    1   -3.90247804    5.71598253    7.96406825   1684.64419169-4745.48098138   75.26200661     -4.56691093   76.96399802   14.41691103
    8    9.44348974   -3.38944085    5.76212874  -3211.43019252-6832.74075638 -377.93509715      7.29027692   10.94363536    4.29275711
    1    9.31413573   -2.65410203    5.17033125   3054.17283699 2609.60072350 2561.47508516    -35.09226363  -26.29546054  -27.12417434
    1   10.06929716   -3.07544615    6.41109176    158.46370348 4219.78852987-2192.82057865     13.52892939  -53.44892449   52.75788915
    8    7.79214558   -3.14207261    7.94699826   7900.20305343 1654.23907947 3908.40807964      1.09611785    3.34245295    2.61622784
    1    7.36435516   -3.98481940    7.84042925  -4337.92159907 2507.96843162-2602.66699665     40.40077692    0.12579893   30.59902377
    1    7.19760288   -2.51223387    7.55102572  -3567.07361136-4171.92345495-1290.01080270     36.15986804   40.65369732   22.59717655
    8    3.56887440   -6.38780423   -6.61432835  -7480.19183637 2575.43935810 1274.17800051      9.80897108    1.91662981    2.99832578
    1    4.38025210   -5.89880687   -6.49777720   2637.78889089-4022.80511416-1471.62870226    -17.02986791   67.42328441   34.40462731
    1    3.84225708   -7.24919305   -6.91250708   4834.55883356 1444.46123577  203.42629684    -44.89093720   -3.84025306   12.36675730
    8    5.11521065    0.09911007   -4.66121968  -9465.55265111 6609.49406393 3188.45823185     -7.41256212   23.69188573   38.57924625
    1    6.04960191    0.00034871   -4.49305713   -847.29096062  897.18302318 5270.34550394     27.48831305    4.07091334  -49.67375437
    1    4.72972028    0.27831019   -3.80963263   4875.04555252 -308.79192659 2312.06270080    -47.07751774   19.69983762  -11.14047625
    8    2.37142168    5.77989489    4.63599359  -7374.15094333 2942.17191789   84.01182587     10.07050130    1.64585474    3.91129899
    1    2.64116775    4.87811105    4.77939298   4798.03422269 1325.04959679 -639.01912690    -46.79004508   -2.67118516   24.14035191
    1    3.18277149    6.25780927    4.48227990   2606.87494367-4252.25135371  566.95175774    -17.65535496   71.29674908    8.39784587
    8   -6.27260740   -0.90279958   -3.16432261   7123.43900493-3592.70639120-2400.00467231     -0.61380384    6.21250484    5.53395834
    1   -7.13032910   -1.30834744   -3.09509382  -2038.36879925 4548.15442364 1624.73591824     35.64186479  -32.25647764   -1.08339493
    1   -6.40620133    0.00304394   -2.89632994  -5073.83708482 -967.74756212  784.53273008     68.67645969   27.24374652    7.79250084
    8    4.38374171   -2.57013350   -7.98795674  -3296.19440685-6779.16028837 -587.10176864      7.40690918   10.91261586    4.56668752
    1    3.98240163   -1.74850047   -7.71751217   4157.52068790 2234.38988776 -572.56670423    -54.34247231  -20.11298821   25.16463774
    1    5.29470937   -2.35117590   -8.16699307   -862.96476821 4536.52231234 1150.61282326     30.82636237  -59.32555496   -3.88219826
    8   -8.48472012   -8.79919269   -6.47378718    903.71327372-7755.43864090 1024.99540064      3.17804921   10.59235778    3.11869237
    1   -9.26388122   -8.34010622   -6.77107281   2391.78706505 4329.52374846  384.52850517    -18.26322622  -43.44146285   10.07246813
    1   -7.83723410   -8.11381232   -6.32478645  -3290.07619826 3423.47571877-1399.20648233     62.16298214  -30.68661335   34.95926883
    8   -2.75783563   -6.98155517   -2.43451154   3082.31661451-6478.30758791-3130.60122098      1.23146370    9.64512242    6.73352978
    1   -2.31190610   -6.16038127   -2.23968042  -4209.33677506 1887.25094390 1716.76891066     76.10305274   -9.93724630   -8.53157698
    1   -3.65965392   -6.84132193   -2.16325913   1130.11658316 4588.73106025 1420.27769780     -1.39193907  -49.13317242   -3.96570499
    8    3.81309602   -5.95580490   -9.33996869   6269.66474812-4952.98643362-1882.05900068     -0.42332219    7.40943548    5.19038403
    1    2.88502021   -6.16382130   -9.35925047  -1114.05191329 4807.70035312 1567.06512771     27.48601493  -38.26037599   -1.50708589
    1    3.85553039   -5.04552214   -9.05673301  -5155.09691624  151.43772665  304.11700758     73.39725611   15.03239675   12.79739999
    8    7.93488656    0.00061308    0.68864645    753.84082846-3414.70979287 7331.70646297      5.96353463    9.35577827    0.17320567
    1    8.59655472    0.61974122    0.39085331  -2823.51462517  916.70249970-4400.58019758     43.22702760    8.51079658   58.00568942
    1    7.27599323   -0.00355282    0.00257793   2790.40939893 3586.68147944-2755.54715290    -13.70098276  -17.62134367   41.15601322
    8    7.56344752  -10.15407297   -0.00522140   1223.03851054************** 1257.24571990      6.29514659 -222.15109728   22.61514852
    1    8.76428445   10.55109554   -0.02778188  71239.6230653020996.26819306**************   5571.62309680 1510.90064788-1705.23658627
    1    6.63903808   10.38068007    0.58270739  **************20491.4681798919774.27358530  -5528.21813177 1302.59329275 1441.73122525
    8    0.00802163    7.76429540    0.48217981  -5787.44441299-3173.12161994 4533.04827665      8.74223927    6.32894541    0.42628308
    1   -0.00619297    8.58827609    0.00325214   4681.73444784 -828.26394639-1596.71341396    -45.13569397   28.95163191   37.60065513
    1    0.86909851    7.39427281    0.30898186   1127.76245634 3984.04831706-2856.67530735      1.41533429  -36.01041340   53.07605512
    8   -7.49731821    5.59370618    8.02136128  -4095.51751004 -261.25255273-6356.86703856      8.17662802    4.31098110   10.52144733
    1   -7.21978486    4.86314035    8.56643730   2178.53771092 3025.66359623 2957.11932274    -20.70407079  -35.70509638  -32.93458513
    1   -7.14595619    6.36946065    8.45265864   1897.58106126-2752.55618182 3393.04899697    -15.76138660   61.89153280  -40.22391363
    8    7.85454573   -0.00872639    3.43776595    791.12065100-7675.43648157  298.65708677      3.45050487   11.13081128    3.50709134
    1    8.54480906    0.63455495    3.29571004  -3322.71368914 3636.61631233  295.45325236     63.57233736  -34.99785517   11.80037634
    1    7.05667334    0.50348975    3.52864211   2579.12990564 4152.61522274 -633.56628789    -22.22767139  -42.84172975   25.01619008
    8   -5.94475535   -8.77242903    6.61249199    682.77217785 8725.30494600  813.03487624      3.64759741    0.21244274    3.66742593
    1   -5.62358789   -9.31659464    5.90089665  -1974.30014655-4505.90222089 2529.94954827     29.63832797   46.26609131   -3.08824413
    1   -6.35493090   -9.37952272    7.22079629   1279.42630501-4228.02864452-3340.78291568      6.09976536   44.14636920   39.19173855
    8    0.00033824   -4.08235754    8.81407938   5297.42929518************** 2632.23161205     -0.88139987  -44.93179693   33.53679821
    1   -0.15341994   -4.95441240    9.15591956  -4218.18451536 2354.82281340 4148.73816720     38.90707329    2.53542875   -4.46928730
    1   -0.57325828   -3.51300160    9.32094945  -2068.79642242-5003.36418418 3249.36874157     27.06559247   43.02289015   -1.83808578
    8   -9.22915486   -0.52428409    7.33915445  -3510.84043700-6965.34288236  822.61169363      7.04174530   10.36982409    5.18383146
    1   -9.02813384   -0.00445116    6.56639665   1937.73844042 3387.82360978 2735.10735979    -14.29716701  -39.24276947  -31.90088826
    1   -8.91173926   -0.00461512    8.07431748   1486.19741479 3394.84019949-3034.94354466     -6.96037524  -38.83182651   65.48507176
    8    8.83966681    4.25023231    0.02290571  28680.8891122638421.8659289146279.54801808   1903.27655086  986.49061870  349.61161724
    1    7.93363896    4.74888956   -0.02377359   7592.2313949211500.22715290**************    173.72250369  266.95896814 -831.56495046
    1    8.78919359    3.84435672    0.89025754  33092.74788507**************-5027.88597542    828.95724080 -414.56089035 -155.21353486
    8    7.55737946   -0.62658456   -1.60680512  ****************************  993.72502871   -362.32101163-1027.73400619  -49.60425994
    1    8.05444868   -1.38716907   -1.58160581  ****************************-8591.55001022   -726.15185648 -468.08746958 -134.27977479
    1    6.68895540   -0.85291356   -1.76039318  12983.94515371**************-1404.31106442    250.73306095 -849.30024292   -6.14532217
    8    0.77503789    0.01403920   -6.34512330    329.59807943 8657.13004636 1150.59770506      3.94924247    0.06165332    3.70926960
    1    0.00339647   -0.54147693   -6.36919950   3224.26052378-4460.03223078 -719.32227057     -6.87170379   45.44426967   21.63917249
    1    1.51036542   -0.58067854   -6.46138550  -3473.66892174-4267.91614654 -339.54162367     41.65239166   44.77176850   17.42761564
    8    3.95391537   -6.04622394    7.07374895  -5322.88107681 1925.20788184-3254.10363818      1.14506625   41.26285672  -17.53216599
    1    4.29004153   -6.93447768    7.15723385   3036.63354333 1349.68081756 2238.55746312    -43.35571032  -12.50591692  -26.12763079
    1    4.56560903   -5.50567641    7.56850185   2155.57458272-3252.00750179  928.29392952    -25.31014301   78.84522286   -1.26604193
    8    0.09131324   -5.32153994   -0.45864068  -5712.41410730 5638.29263067-1376.63481227      8.06721372   -0.14311668    4.89267033
    1    1.00565407   -5.29988268   -0.72840742    758.77176010-4566.90246165 2206.84741156      7.74445620   68.95168304   -9.64227423
    1   -0.00823651   -6.14679406    0.00578246   4953.72381231-1076.27874592 -827.29285993    -41.67546584   27.23013817   26.25245539
    8   -8.16565867    9.95077503   -8.02207494   -997.25772787 2302.05479371-7431.26598035      4.83873055    1.97887549   10.47322173
    1   -8.83130985    9.63980624   -7.41628808   3455.22144800 -576.35059281 3501.65874275    -33.09327584   23.68314122  -32.76288686
    1   -7.35050384    9.92401970   -7.52662621  -2455.80151394-1709.06299814 3939.62837765     50.50362601   39.75120416  -38.93423716
    8    6.89939480   -1.62223649    0.64753898  -6862.59705845  -44.42752702 4174.38975447     10.42945041    3.39064118    2.65638947
    1    7.62563773   -1.01628657    0.77684543   2774.82156708-2510.42023998-3361.62562727    -17.04341675   51.19298832   58.95597992
    1    7.21231041   -2.24569141    0.00043536   4455.83753403 2475.27150219 -200.46463859    -39.01159263  -14.09502057   18.38685381
    8   10.04930649    0.54758928  -10.04085765  -1727.97376209-2790.68248224**************     72.18193826   87.92240751  150.75961026