 BEGIN_INFO
   #
   # This is a XCRYSDEN-Structure-File
   #
   # aimed for Visualization of geometry
   #
   # Launch as: xcrysden --xsf HICOLM.XSF
   #
   #
 END_INFO
 # estrutura final
CRYSTAL
PRIMVEC
      21.00151885       0.00000000       0.00000000
       0.00000000      21.00151885       0.00000000
       0.00000000       0.00000000      21.00151885
PRIMCOORD
  927    1
    8    2.45874301   12.17867901   12.30388901  -2870.16647383-9001.07070165 2797.77791379      3.94824732    3.94792653    3.94854389
    1    2.53977403   11.36148903   11.82001303   2722.93537848 3056.35814770-4732.94149806     15.73353921   15.73381615   15.72734643
    1    2.03713203   11.92285403   13.11954403    144.91226899 5938.41284169 1935.12103878     15.73139792   15.73620995   15.73288487
    8   16.99286701   11.28184101   14.20903101  -3951.38365608-9058.65415447 -287.43498360      3.94819075    3.94792352    3.94838246
    1   17.43911203   10.44408703   14.29583403   5469.56034592 2984.19184822  678.57416465     15.73582053   15.73375621   15.73184119
    1   16.07784803   11.04419603   14.08753603  -1519.88066475 6065.57526063 -386.58567265     15.73001516   15.73631558   15.73095647
    8   15.66864801   18.05079301   10.13510201   8158.44721202 1859.79382299-5182.25229397      3.94882438    3.94849481    3.94812635
    1   16.48334103   18.43799803   10.44307903  -2396.39212123  487.52236900 5754.02665631     15.72928715   15.73168250   15.73605679
    1   15.82672503   17.88672903    9.20958103  -5764.73530050-2342.82571727 -574.95783712     15.72648945   15.72933164   15.73080001
    8    2.08252401    5.98056601   14.12579201  -6033.56038960-7782.78424854 -261.79917739      3.94808180    3.94799027    3.94838380
    1    2.31486603    5.05622203   14.11549603   6059.93827863 1516.36311942  147.82612233     15.73631090   15.73253705   15.73140035
    1    1.12956303    5.97901203   14.10680203    -20.53399623 6254.23897358  102.29241455     15.73126051   15.73647229   15.73136253
    8    5.76023801   20.30255201   15.10247201   5304.19863053 2854.23597361**************      3.94867923    3.94850612    3.94761877
    1    5.19567003    0.00043203   15.42298103  -2663.93504580-4285.26736004 4849.85732645     15.72922684   15.72797685   15.73501755
    1    6.24827703   20.70887203   14.39168503   3348.68418739-5963.56026669-1109.32523148     15.73385528   15.72669051   15.73042567
    8    2.88755601    5.24825401    7.50489401  -6616.60836396  892.90086999 7240.01424014      3.94805130    3.94844422    3.94877633
    1    2.17237403    4.65696103    7.72258303   1662.46994677-3755.04869297-4717.82297454     15.73265838   15.72815866   15.72735900
    1    2.81421503    5.94613403    8.14993703   4956.42882582 2862.10497531-2524.02720482     15.73539432   15.73365480   15.72918114
    8    4.17553801    8.76437701   17.46600401   6232.72700783 -855.54473015 7593.69767349      3.94872362    3.94835274    3.94879483
    1    4.14989803    9.22441803   18.30039303  -5153.54879079 3038.88549687-1824.92473907     15.72699709   15.73380163   15.72976181
    1    4.94414103    8.20488803   17.53469303  -1081.74962730-2191.12502390-5755.92450250     15.73037908   15.72945765   15.72649677
    8    6.60266601   -0.00022799    9.16270501  ******************************************      4.08751797    3.94683566    3.99152973
    1    7.08442903    0.23863903    8.37571803  -2981.79774626-4430.92876243-3247.84992849     15.72880094   15.72759730   15.72857994
    1    6.93139403    0.60063003    9.82558103  -3804.22317698-2583.38980628 4257.63510953     15.72811783   15.72913184   15.73481390
    8   15.63083001   11.69151901   18.57600801  -3396.98594823 5145.69387908-7686.89229612      3.94821976    3.94866674    3.94799529
    1   16.08274903   11.90184303   17.76358203   5063.96608933-3058.75515879 2019.34682477     15.73548365   15.72873699   15.73295482
    1   14.77280703   12.09371003   18.47337103  -1660.51488767-2080.17079285 5664.88698099     15.72989836   15.72954980   15.73598277
    8   11.24150301   20.59220401   19.55813301  -7899.98064613-4411.90072400-1962.42181169      3.94793224    3.94813906    3.94827801
    1   11.03706203   19.66126303   19.56558603   4811.41321053-1043.95853863 1888.98145607     15.73583488   15.73028903   15.73306713
    1   10.44697903    0.00010703   19.22520403   2260.80185108 4742.64803412  420.99543213     15.73341573   15.73577435   15.73167432
    8    0.52920315   11.97751708    6.26447907  ******************************************    149.95196371   77.20796493   64.33148568
    1    0.38260103   11.10739903    6.62490103  -6147.44646400 1141.41327614  -33.99284756     15.72617163   15.73222567   15.73124943
    1    1.47653003   12.03363403    6.17549003   -580.65652656 5789.96073645-2299.03732484     15.73079529   15.73608668   15.72936800
    8   16.54777001    7.83422301    0.42511501  ****************************90854.62696423      3.93414839    3.94661551    3.95315138
    1   16.35817103    7.00259503   -0.00026497   6139.11885769-1047.74449175 -668.71478421     15.73637667   15.73040732   15.73072213
    1   15.68741903    8.19179603    0.62619303   2693.23909312 5044.29131748 2536.48446374     15.73351455   15.73546732   15.73338434
    8    2.42188701   15.23424301    4.23109401  -1448.23188285 3141.78223884-9219.89379921      3.94832172    3.94856189    3.94791508
    1    1.71205003   15.77841103    3.90168003  -2466.10061835  269.49992487 5742.56240661     15.72922924   15.73150141   15.73604728
    1    2.95639803   15.06145903    3.46106803   3921.71052257-3404.88139749 3480.62942982     15.73453490   15.72844950   15.73416854
    8   16.85985101    8.79594601   11.58846901  -7257.47528836 5840.71175114-3163.70664517      3.94801776    3.94870311    3.94823196
    1   16.13351503    9.15483103   12.09060303   2124.36205200-2866.05203749 5127.09088002     15.73304204   15.72889705   15.73553608
    1   16.72064403    9.13361603   10.70807303   5132.36497742-2971.37663308-1970.20911971     15.73554046   15.72880957   15.72964113
    8   19.63611901   11.97588501    8.89324601   4824.85225441 8447.59000411-1110.99919740      3.94864995    3.94883951    3.94833936
    1   20.56724703   12.10439803    8.73517303    873.03921865-6173.10692175   58.71395242     15.73200270   15.72615027   15.73132633
    1   19.28270103   12.86065303    8.92112603  -5719.89133635-2298.41240662 1021.70112692     15.72652670   15.72936854   15.73212618
    8    4.19173301    3.42529001   18.19354201   -726.73318045-4801.47524190 8566.47342080      3.94835948    3.94814627    3.94884573
    1    3.73924903    2.60532903   18.37080703  -1741.36475568 -341.50273195-5991.57815818     15.72983122   15.73099393   15.72630103
    1    4.55790303    3.67376803   19.03774303   2457.44486081 5138.82441534-2572.73460257     15.73331869   15.73554582   15.72914069
    8    3.04608001    3.39416401   12.05041201   4087.24312673-8961.97756763  338.33783401      3.94861136    3.94792858    3.94841520
    1    3.77264003    3.10054103   12.59299603    427.63651414 5712.80532862 2520.73650708     15.73163276   15.73602256   15.73337126
    1    2.80744003    2.62107703   11.54654303  -4522.46329178 3248.21646364-2850.76521320     15.72752126   15.73397550   15.72890974
    8    8.54549701   14.90168601   16.42316201  -2858.80971779 9435.92721678  354.91014731      3.94824792    3.94889123    3.94841607
    1    7.65730603   15.24567603   16.45906303  -2264.99630985-5828.79962219  -97.24319713     15.72939629   15.72643623   15.73119680
    1    9.09482203   15.68060303   16.42829503   5111.78746694-3598.94730659 -259.33751473     15.73552336   15.72828832   15.73106216
    8   11.68140001    5.10326401   10.32803901  -4941.36767482  629.80370194 8511.56883843      3.94813895    3.94843045    3.94884286
    1   10.74121303    5.19322303   10.45632903   -854.39852185  -40.69600818-6196.27710825     15.73056791   15.73124376   15.72613101
    1   12.03434103    5.08639603   11.21327603   5788.58306223 -589.55452410-2312.46042283     15.73608550   15.73078789   15.72935686
    8    0.07975101   18.20181101    7.94995701  10003.3643691326257.62842849**************      3.94892133    3.94977137    3.94771747
    1    1.01620203   18.03384403    8.00781103  -1162.37274068-6093.48357395  978.01887888     15.73031211   15.72621640   15.73208989
    1    0.02309403   19.14013303    7.79235603  -6239.50698718 -408.40273842 -129.89051178     15.72609510   15.73093834   15.73116969
    8    8.65992201   -0.01052199   14.76032301   5952.09791139 7854.48880034 -646.91446495      3.94870893    3.94880850    3.94836366
    1    9.60912703   -0.00391897   14.67390503     41.41635699-6238.01516953  -37.02501249     15.73131197   15.72609636   15.73124681
    1    8.42431603    0.91268703   14.78622803  -6033.26136045-1534.45349695  540.53168151     15.72626642   15.73000308   15.73172653
    8    7.26057101    7.23368601    4.46991801   7140.49064551 5013.59046338 4574.07500905      3.94877112    3.94865983    3.94863683
    1    7.31773603    8.17443503    4.61213103  -5453.47087522  786.27483389-2946.56726634     15.72674799   15.73193064   15.72883019
    1    8.05448703    6.89118403    4.87102503  -1676.60919180-5793.57491834-1616.03804058     15.72988500   15.72646550   15.72993531
    8    3.73987201    9.49196901    0.19320401   1940.1353286328546.3847673912090.94839240      3.94850125    3.94989706    3.94903112
    1    3.01732503   10.08271503   -0.00030397   4075.80609108 4657.42150929 -772.84685951     15.73466293   15.73514594   15.73063559
    1    3.31565903    8.65365703    0.35374103   5577.17275980-2687.38944003  936.33794900     15.73590989   15.72904521   15.73205509
    8   20.35618101    8.58773501   19.28909501    110.39840692 4591.3456597610870.34771903      3.94838921    3.94862688    3.94895891
    1    0.00069703    8.30957903   19.93386603  -1799.73152464-6245.85281417 -903.76953068     15.72983337   15.72626495   15.73055019
    1   20.45500903    9.53524503   19.25819603  -4731.27215839  337.33465190-4534.35433296     15.72748701   15.73154734   15.72763774
    8    3.47541201   -0.00130899   10.25744701  ******************************************      4.10455058    4.26572036    2.04268667
    1    4.23452403    0.54163103   10.45101103    -46.86156035-2055.18497798 5938.17899905     15.73123858   15.72957056   15.73620980
    1    3.29989503    0.16780503    9.33598603  -4822.77900048-3943.65600922  148.72490653     15.72727182   15.72800203   15.73140111
    8    3.62752701   11.42382701    9.09034401    974.50832716 2819.69274397-9403.03664548      3.94844849    3.94854504    3.94790550
    1    4.40725803   11.75992103    8.65726003   3209.40662293 -535.21149851 5349.97389318     15.73394327   15.73083302   15.73572120
    1    2.96574603   11.42130603    8.40438803  -4190.71689842-2269.64927492 4048.72511264     15.72779680   15.72939242   15.73464040
    8    5.57798201    0.01403001    8.84330101  **************28663.28050475**************      3.80993396    3.94991092    3.90512814
    1    5.33686703   20.09449503    8.77387603  -6288.53318905 1668.52574321 -178.79556896     15.72621718   15.73262102   15.73113428
    1    6.52998403    0.00004703    8.88792403    365.19832008 6467.22400419 1822.26022964     15.73157884   15.73647498   15.73278047
    8   19.75971601    4.17234501   14.04882901   4271.00344986-6775.35420313-5409.88955881      3.94862086    3.94804306    3.94811435
    1   20.69581703    4.08527703   13.89187703   1039.17809400 5196.51053470 3333.64763386     15.73214069   15.73559374   15.73404648
    1   19.37964603    3.42372003   13.59760403  -5712.11619223 1809.17592696 1811.03832721     15.72653314   15.73278025   15.73278180
    8    5.40350301   12.42229201   18.16511501   6084.88252431-2013.04877267 7471.23516745      3.94871588    3.94829217    3.94878842
    1    5.90508403   13.03470603   18.69602703  -2324.67508320 4771.97573592-3295.45710377     15.72934672   15.73524111   15.72854040
    1    5.62633203   11.56849403   18.52549303  -3757.40984835-2752.49957717-4175.03094946     15.72815671   15.72899137   15.72780984
    8   11.83083201    2.26615901   -0.00324999  ****************************11314.09192827      3.97159613    4.01630548    3.94891690
    1   11.11883903    1.63247703    0.00050503  -3720.67440181 4094.72790873  -34.27848887     15.72818724   15.73467857   15.73124970
    1   12.61794203    1.72861503   -0.00225797   4015.06980798 5359.89076014  -55.29230725     15.73461244   15.73572944   15.73123169
    8   18.53936001    5.57450701    0.87161001   2985.69148275  382.53427257 9558.94556318      3.94855373    3.94841752    3.94889766
    1   19.43829403    5.33925903    1.08392403   1100.92145064-1305.23363139-6031.84524722     15.73219197   15.73019349   15.72626762
    1   18.16321103    5.82799203    1.70991403  -5469.00309572 1191.90492880-2805.25720536     15.72673508   15.73226755   15.72894756
    8   15.37698201    0.45409201    0.05041801   7026.84882203************** 7177.06632062      3.94876536    3.94721226    3.94877252
    1   16.24103403    0.05401903    0.00733703   1486.77121583 3719.98854259-4786.02632256     15.73251246   15.73436735   15.72730234
    1   14.94826103   -0.00001697    0.77047303  -5139.96141973 3438.25342981 -848.70156024     15.72700835   15.73413333   15.73057268
    8   13.44447201    2.59579901   16.97328501   3110.38343228 8212.62271976 4518.22739280      3.94856025    3.94882722    3.94863391
    1   14.25589603    3.07473003   16.82934603   1672.29060226-4150.97199502-4374.43586398     15.73266655   15.72782982   15.72764422
    1   13.00076603    3.09337403   17.65449003  -4766.67435067-4057.50229079 -140.55882456     15.72731843   15.72790746   15.73116082
    8   13.96601401    3.68903801    6.09198601  -4353.86949916-2498.78850869-8498.05990062      3.94816969    3.94826675    3.94795285
    1   13.11933603    3.97635303    5.76170203   -825.74784283 3481.28762016 5139.46794941     15.73059171   15.73416910   15.73554637
    1   14.29210803    3.10474103    5.41319503   5190.93737728 -995.33489133 3340.95364104     15.73558912   15.73045085   15.73405254
    8    4.92319701    7.56474101    6.95756701   3698.19652675-6769.04983824-6120.91102250      3.94859101    3.94804332    3.94807723
    1    5.01609503    7.61760303    6.01042603  -2498.77590407 5728.59710720   68.78793993     15.72920211   15.73603569   15.73133470
    1    5.27085103    6.70447903    7.17570003  -1194.99937531 1040.74961665 6050.92429402     15.73028501   15.73214200   15.73630341
    8   14.95316501   11.65947101    0.40369901   5839.20505321-5660.39779855-5528.80445516      3.94870303    3.94810133    3.94810821
    1   15.78845103   11.88908503    0.00611303   -424.23253871 5742.96953857 2415.97497533     15.73092520   15.73604762   15.73328425
    1   14.81407803   10.75378803    0.14123303  -5420.21029676  -81.84445895 3111.71466270     15.72677560   15.73120959   15.73386212
    8   16.71622401    0.23557401    6.04162101  33914.8476948749444.99278086**************      3.95018320    3.95099970    3.94629787
    1   17.54413303    0.00015003    5.63217803   -996.16269251-6013.87769711 1428.88153461     15.73045015   15.72628251   15.73246437
    1   16.66353903    1.18052503    5.92853603  -5517.00016268   61.50150347 2948.87787093     15.72669520   15.73132863   15.73372688
    8   20.21338301    0.70226901    5.55925701    961.34385653-9679.46705968-1331.78541694      3.94844777    3.94789105    3.94832781
    1   20.13942603    0.20760403    4.74787603  -1208.13421757 5289.37437994-3114.63261350     15.73027408   15.73567087   15.72869058
    1   20.40955703    0.03995803    6.21603303    186.98629814 4433.26881839 4428.74634781     15.73143289   15.73495980   15.73495604
    8    3.40312201    8.71180101    9.68997801   2721.30140690-6610.85659799-6793.56973571      3.94853989    3.94805159    3.94804203
    1    3.94276903    7.93513903    9.80863203    566.48750028 1324.90700463 6084.26523343     15.73174808   15.73237802   15.73633111
    1    3.18978703    8.70463303    8.76103603  -3297.88568155 5270.11761581  710.40547983     15.72853837   15.73565488   15.73186763
    8   20.19488701    5.23883601    0.00020401   1780.47570288************** -725.59294690      3.94849066    3.94786602    3.94836004
    1   19.46612603    4.62450003   20.99973303  -4055.98190708 4780.36135071   -8.77182081     15.72790863   15.73524814   15.73126870
    1   20.96727203    4.68034103    0.00060403   3667.53131738 5065.62583811   15.71315947     15.73432383   15.73548510   15.73128423
    8    5.31212801   20.99246701    5.62235001    858.56511776  166.91422382 9869.26595833      3.94844238    3.94840573    3.94891335
    1    4.61171403   20.99744503    6.26879903  -4257.51765173 -101.32454803-4590.80820328     15.72774514   15.73119988   15.72746859
    1    6.10881903    0.00289103    6.14548603   3449.05861287  -66.34130621-5236.46893943     15.73413919   15.73122406   15.72693286
    8   19.96981901   14.68873001    4.66146001  -9419.26816986 2294.08533802-1968.71700033      3.94790464    3.94851754    3.94829449
    1   19.50245203   15.48776703    4.88863603   5166.07755523 2246.96978388 2737.28592938     15.73556846   15.73314388   15.73355114
    1   19.31961303   14.16365303    4.20317803   4226.89126290-4545.75437930 -788.09578159     15.73478839   15.72750190   15.73062298
    8    3.92999301   12.00623301    4.52051201   9074.97157754 3754.96620142  584.88759089      3.94887234    3.94859397    3.94842810
    1    4.76172203   11.54711903    4.44342303  -3048.64556181-5389.12065510 -858.84823894     15.72874540   15.72680143   15.73056422
    1    4.18048303   12.91429803    4.66600103  -6033.55316817 1630.99362183  283.50116082     15.72626618   15.73263225   15.73151304
    8   20.57078801   18.15296901   13.30631501  -4568.77270343 7397.07404687  467.98921373      3.94813194    3.94883905    3.94842289
    1    0.00002703   19.00378203   13.32563803   4698.07945831-2341.98363513    4.08729861     15.73572882   15.72906109   15.73128114
    1   19.64124103   18.36371903   13.30152203  -1178.15248744-5146.30927222 -103.48922987     15.73016420   15.72640826   15.73117958
    8   10.78587901    2.88367401   12.76557501  -9443.40727578  787.00406337 2723.54877097      3.94790338    3.94843868    3.94854001
    1   10.24787603    2.23266103   13.20743003   4845.92332913-3962.01006576   62.34822491     15.73530255   15.72798676   15.73132935
    1   10.20005103    3.62649603   12.64931103   4594.27902531 3184.48751234-2801.28033141     15.73509353   15.73392257   15.72895085
    8   11.94323801    0.58016701    2.40338501   1837.52164525-9235.64826735 -673.37203868      3.94849365    3.94791425    3.94836228
    1   11.19042803   -0.00361197    2.37208303  -3902.72918932 4929.72622021  476.45329485     15.72803602   15.73537214   15.73167330
    1   12.69231003   -0.00602597    2.34203203   3866.32032552 4903.68124782  315.35885777     15.73448890   15.73535052   15.73153949
    8   16.28053501    5.42088401    7.56558801   7730.78107314-5514.91300932 2639.65579400      3.94880201    3.94810894    3.94853562
    1   16.38289603    4.47696103    7.48172603  -5701.12467058 -397.33124308-2553.63147974     15.72654227   15.73094755   15.72915655
    1   17.09841003    5.70714003    7.96261703  -2019.68201396 5919.65225892  -84.27423697     15.72960004   15.73619436   15.73120757
    8    9.44274201   17.60942301    5.76169401   4193.28031240 8879.26589883  457.73356568      3.94861691    3.94886210    3.94842145
    1    9.31788403   18.34876903    5.17324003  -4022.98866232-3370.12232669-3391.50328744     15.72793613   15.72847838   15.72846062
    1   10.06795503   17.93026403    6.40563903   -173.20661433-5513.62551091 2930.17581658     15.73113371   15.72669802   15.73371133
    8    7.79230201   17.85764701    7.94687001  -8693.58735473-1831.65548956-4252.85960828      3.94794262    3.94830166    3.94817497
    1    7.35796303   17.01648803    7.83595203   4767.89433844-2847.97079596 2874.55536216     15.73523774   15.72891206   15.73366515
    1    7.19205803   18.48146103    7.54804703   3922.17408587 4674.11242658 1394.45536515     15.73453529   15.73515984   15.73243579
    8    3.56777201   14.61204301   14.38539201   9169.66966105-3179.26458818-1537.87700246      3.94887729    3.94823115    3.94831703
    1    4.38261203   15.09346203   14.49840703  -3222.70920709 5032.03574878 1831.30819306     15.72860082   15.73545712   15.73279863
    1    3.84795203   13.75150703   14.08627403  -5955.59815091-1856.10329296 -287.87617207     15.72633091   15.72973591   15.73103846
    8    5.11517401    0.09768501   16.33623601   -942.42022603 8101.5293223319712.22343304      3.94834663    3.94882277    3.94943190
    1    6.04668003    0.00012003   16.51309603   1052.42717959-1054.96217062-6073.11768475     15.73215169   15.73040134   15.72623329
    1    4.73544803    0.27626403   17.19204803  -5712.48394235  367.09117179-2573.70731571     15.72653286   15.73158246   15.72913987
    8    2.37030801    5.77977501    4.63560301   9200.35461209-3589.99157558  -95.55284750      3.94887891    3.94820966    3.94839250
    1    2.64694803    4.87864903    4.77682103  -5966.44216082-1713.14328454  808.57467448     15.72632190   15.72985465   15.73194916
    1    3.18514303    6.24968103    4.48156503  -3202.32002986 5318.21832207 -701.45489465     15.72861775   15.73569481   15.73069495
    8   14.72760901   20.09649701   17.83507101  -8135.44436477 4076.04805248 2758.03074795      3.94796013    3.94861625    3.94854578
    1   13.86536503   19.69641303   17.90556403   2287.20856491-5284.59081197-1862.38071417     15.73322786   15.72677173   15.72968790
    1   14.58518503    0.00001403   18.10315403   5860.53305192 1195.67578091 -884.44147728     15.73628028   15.73230024   15.73052277
    8    4.38298301   18.42873501   13.01158201   4325.27988324 8809.78852665  767.58939200      3.94862382    3.94885846    3.94843766
    1    3.98813303   19.25371703   13.27990903  -5508.64467336-2871.90468197  758.48237590     15.72670215   15.72889220   15.73190756
    1    5.29156303   18.65512303   12.83346303   1182.54645261-5946.20825348-1531.17007801     15.73225977   15.72633872   15.73000580
    8   12.51497201   12.19964601   14.52591401  -1134.31689403 9695.11381733-1249.99587621      3.94833815    3.94890479    3.94833210
    1   11.73839003   12.66510803   14.22797903  -3069.36409006-5425.13638995 -508.29961274     15.72872819   15.72677151   15.73085538
    1   13.15590903   12.88995203   14.67142303   4206.13317795-4269.22751432 1769.18243425     15.73477113   15.72773160   15.73274703
    8   18.24207601   14.01740101   18.56477701  -3884.31724808 8137.48453859 3943.56812773      3.94819426    3.94882328    3.94860384
    1   18.67971703   14.84097803   18.76147903   5379.59133023-2332.17880065-2165.57213827     15.73574579   15.72934049   15.72947887
    1   17.34065703   14.16443103   18.83740003  -1492.55753658-5806.65499372-1772.03673849     15.73003786   15.72645463   15.72980574
    8    3.81326001   15.04335501   11.65947101  -7557.01804728 5951.30401292 2217.35942376      3.94800209    3.94870890    3.94851352
    1    2.88190503   14.84148303   11.64138703   1297.09785837-5828.36112735-1882.31686924     15.73235492   15.72643659   15.72971414
    1    3.84657903   15.95303403   11.94208403   6247.77660898 -117.82913731 -339.22050084     15.73646690   15.73117970   15.73099582
    8    7.93438801   -0.00029399    0.68882201    766.01815421 6238.48652962-8167.36020952      3.94843785    3.94872429    3.94797024
    1    8.59116503    0.61926903    0.38339303   3361.00524930 -992.06126531 5174.29301926     15.73406919   15.73045360   15.73557527
    1    7.27832403   -0.00041697   -0.00260797  -3406.02674875-4167.06567166 3183.96102762     15.72844851   15.72781646   15.73392208
    8    7.56286301   10.85948101   -0.00719299   3277.47437329************** 4910.13284967      3.94856899    3.94717956    3.94865442
    1    8.41817703   10.44811603    0.08066203   2540.87770198 4477.75985040-3537.53045307     15.73338800   15.73499675   15.72833933
    1    6.98272803   10.29502703    0.49612503  -4836.67601577 3699.77843100-1406.17847385     15.72726027   15.73435057   15.73010961
    8    0.00706301    7.76360701    0.48220801   7210.00118015 3801.01647882-5517.04746473      3.94877476    3.94859638    3.94810885
    1   -0.00059697    8.58525103   -0.00084797  -5821.65142930 1140.33157570 2029.19618655     15.72644216   15.73222472   15.73296303
    1    0.86921103    7.39880003    0.30300603  -1364.73300672-4963.58231265 3565.84010716     15.73014403   15.72715486   15.73423930
    8   13.50184001    5.59327501    8.02027301   5313.91677178  390.94254659 8269.58775084      3.94867555    3.94841796    3.94883020
    1   13.78243903    4.86691303    8.56996803  -2853.26970080-4029.12509291-3845.20744404     15.72890768   15.72793103   15.72808379
    1   13.85576003    6.36304603    8.45695403  -2474.53864154 3647.93205015-4426.06812647     15.72922225   15.73430749   15.72760133
    8    7.85421501   -0.00991799    3.43741101   -891.15422911 9895.13360377 -493.71020908      3.94835089    3.94891529    3.94837165
    1    8.53784903    0.63873203    3.29458403   4259.15982285-4549.51345323 -360.31166686     15.73481515   15.72749881   15.73097831
    1    7.05932103    0.50852903    3.52602303  -3331.94023391-5230.19837722  821.77482473     15.72851009   15.72693343   15.73196013
    8   15.05489901   12.22781901    6.61215101   -801.14437401-9775.48449330 -884.25425515      3.94835558    3.94788601    3.94835123
    1   15.37247403   11.67654203    5.90240403   2264.35077007 5046.92073973-2927.40248793     15.73315832   15.73546950   15.72884609
    1   14.64505703   11.61395803    7.21522803  -1470.95163110 4722.41927893 3819.55098178     15.73005581   15.73519997   15.73445005
    8    0.00049301   16.91985201    8.81182501  -8306.80632465**************19016.60989131      3.94800549    3.94727679    3.94934430
    1   20.84054603   16.04652103    9.15854103   4892.61911194-2785.04976707-4683.83704269     15.73488656   15.72922291   15.72781593
    1   20.42298503   17.48012903    9.32277503   2376.22568818 5840.89737780-3748.42064728     15.73302925   15.73559006   15.72850097
    8   11.77010101   20.47461101    7.33871001   4273.17995157 8647.22901847  245.60938410      3.94862108    3.94884995    3.94841042
    1   11.97352103   20.99978903    6.56974303  -2457.49200253-4420.86891100-3721.38882495     15.72923640   15.72760559   15.72818664
    1   12.08913703   20.99960303    8.06747203  -1864.10428332-4407.75086300 4006.98216586     15.72972928   15.72761653   15.73460572
    8    8.69778601    4.17823001   -0.00051699  ******************************************      4.04706292    3.99745623    3.96301089
    1    7.92699103    4.73888203    0.00622303    594.37819979 1353.41839491-6082.85264932     15.73177124   15.73240167   15.72622529
    1    8.75868703    3.85917503    0.89558003   5102.52689548-3280.05535318-1500.84860662     15.73551563   15.72855320   15.73003097
    8    7.58086301   20.44011601   19.39652501  ******************************************      3.93566187    3.91267489    3.94631098
    1    8.07043003   19.62264603   19.42035203   5276.90323740 3182.27515729 1021.61903532     15.73566051   15.73392074   15.73212612
    1    6.68178003   20.16592303   19.23852203  -1851.98362637 5984.54809445   93.01515638     15.72973932   15.73624831   15.73135482
    8    0.77465601    0.01429401   14.65454801   -367.16101821**************-1449.11372152      3.94838180    3.94784914    3.94833444
    1    0.00565703   20.45175203   14.62830403  -4680.75634399 6322.09104467 1084.50722211     15.72801964   15.73568378   15.73203700
    1    1.50453703   20.41273303   14.53667503   5127.26185049 6079.74055388  455.29570603     15.73485134   15.73551682   15.73159471
    8    3.95304801   14.95243401    7.07365101   8014.80797668-2943.65802547 4887.14729558      3.94881687    3.94824348    3.94865322
    1    4.29457103   14.06677703    7.16011503  -4711.22778985-2162.13672917-3488.19001991     15.72736448   15.72948172   15.72838032
    1    4.56829803   15.48617303    7.56871203  -3305.17729805 5107.76959065-1387.24670822     15.72853233   15.73552002   15.73012534
    8    0.09039801   15.67857701   20.54084101   6694.69651581-6637.15984896 1584.58583472      3.94875587    3.94804214    3.94848187
    1    1.00510803   15.69188103   20.27320403   -842.99186305 5413.90067885-2609.39739400     15.73056273   15.73587935   15.72906538
    1   -0.00262397   14.85013503    0.00292903  -5852.23422961 1217.21870570 1028.87818564     15.72630314   15.73231170   15.73215386
    8   12.83384401    9.95060501   12.97678601   1266.77207485-2899.99813360 9344.75455024      3.94846378    3.94824576    3.94888645
    1   12.17264503    9.63731703   13.58766003  -4400.53572100  728.80661635-4391.91429311     15.72762253   15.73188290   15.72762970
    1   13.64396903    9.91971003   13.47802403   3137.50413223 2175.25462041-4952.48843304     15.73388354   15.73308431   15.72716409
    8    6.89827701   19.37740201    0.64740501   9152.14414284 -338.05132656-3842.52548909      3.94887629    3.94837960    3.94819649
    1    7.62809403   19.97807503    0.77012303  -3327.57165740 3286.75072866 4207.99387385     15.72851380   15.73400763   15.73477271
    1    7.21736303   18.75638303   -0.00145097  -5450.19958031-3017.90985218  243.48388442     15.72675069   15.72877092   15.73147983
    8   10.04444201    0.54139901   10.94907301  -3202.88441140-8891.53647785-2785.50804457      3.94822991    3.94793227    3.94825175