 BEGIN_INFO
   #
   # This is a XCRYSDEN-Structure-File
   #
   # aimed for Visualization of geometry
   #
   # Launch as: xcrysden --xsf HICOLM.XSF
   #
   #
 END_INFO
 # estrutura final
CRYSTAL
PRIMVEC
      29.06582348       0.00000000       0.00000000
       0.00000000      29.06582348       0.00000000
       0.00000000       0.00000000      29.06582348
PRIMCOORD
  927    1
    8    3.40311862  -12.20946943  -12.03616792   -125.19109527 -362.90110104  118.35452775      4.32795197    4.32401039    4.33233824
    1    3.51528690  -13.34051697  -12.70587995    -25.86902075  276.12376206  162.52268781     17.24594283   17.32699680   17.29596452
    1    2.81958675  -12.56353909  -10.90721626    147.77924406   83.62039520 -281.10223388     17.29347214   17.27461470   17.17501567
    8   -5.54621521  -13.45077110   -9.39928596   -165.76334359 -381.01856491  -12.36791743      4.32723804    4.32345989    4.32999267
    1   -4.92855905   14.45554248   -9.27912873   -146.39404883  293.73186883  -30.71877576     17.21378924   17.33398751   17.24392032
    1   -6.81266658  -13.77967805   -9.56743124    315.49200485   88.62716745   40.86960506     17.33920566   17.27826095   17.26387066
    8   -7.37904929   -4.08195377   14.02786603    331.80433837   72.73324197 -209.99015311      4.33586138    4.33135385    4.32660174
    1   -6.25142912   -3.54601409   14.45414727   -277.22817322 -128.77653800 -106.22250992     17.17703985   17.21856025   17.22321767
    1   -7.16024266   -4.30901823   12.74687898    -53.26098598   57.61784444  315.26336332     17.23820569   17.26915167   17.33822800
    8    2.88239885    8.27762745   -9.51449597   -237.94443518 -321.09524964  -14.18902235      4.32622853    4.32464014    4.32987398
    1    3.20399469    6.99826948   -9.52873218    -83.09040467  314.74037274    2.11606662     17.22906999   17.33807790   17.25328290
    1    1.56343246    8.27549093   -9.54076543    323.84994210    2.65795678    7.25749003     17.34036366   17.25336118   17.25465456
    8    7.97267439   -0.96532381   -8.16268608     75.23972743  259.61378986 -303.48987498      4.35088602    4.31086888    4.28823047
    1    7.19127760    0.00061706   -7.71905940    180.18600046 -230.78831229  -56.65371536     17.29843797   17.19146740   17.25030465
    1    8.64817705   -0.40292729   -9.14646259   -166.25954091 -135.72351521  248.33990693     17.20719068   17.21617722   17.32152330
    8    3.99663304    7.26404406   10.38742977   -269.05023908   35.08942869  290.28248451      4.32560597    4.33080168    4.33515852
    1    3.00677343    6.44565757   10.68874459    245.17397686  204.07916156  -73.81308146     17.31933194   17.30820601   17.23231343
    1    3.89513708    8.22998490   11.28023961     24.69152011 -239.56516906 -220.82268487     17.25916777   17.18728102   17.19231887
    8    5.77931197   12.13066360   -4.89135252    250.57542722  -36.45411652  310.56247854      4.33448026    4.32947084    4.33561097
    1    5.74383833   12.76741463   -3.73647138      9.12976213 -154.03067361 -283.76699498     17.25520039   17.21120184   17.17513764
    1    6.84313958   11.35629662   -4.79626664   -264.69627667  193.53589573  -23.84277641     17.18006225   17.30618405   17.24574241
    8    9.13867618   -0.00031088   12.68198672  38751.06561539 -258.1869568911288.15059607     13.45885598    4.20793559    7.15180043
    1    9.80548403    0.33031625   11.59274017   -150.67039861  -68.94907706  244.33759802     17.21488803   17.23656186   17.31292309
    1    9.59367030    0.83134321   13.59947641   -118.58567641 -198.87374075 -216.38692869     17.21883531   17.19978596   17.19561476
    8   -7.43139269  -12.88374117   -3.35501060   -136.02600289  211.08233609 -312.37862090      4.32794556    4.33384983    4.32480223
    1   -6.80588322  -12.59262015   -4.47946435   -154.55040722  -68.36722384  276.61120361     17.21018828   17.23440132   17.32793344
    1   -8.61895665  -12.32705957   -3.49705477    291.39000252 -136.81389969   35.20686879     17.33145415   17.21498021   17.26253262
    8  -13.50660240   -0.56442027   -1.99566432   -363.86471008 -198.74470527 -112.68029223      4.32124123    4.32441732    4.32924597
    1  -13.78955213   -1.85290906   -1.98533438     73.19867228  317.36359805   -1.24760065     17.27323859   17.33916938   17.25263127
    1   14.45954525    0.00016724   -2.45645261    273.09127273 -134.83766477  113.11131367     17.32702597   17.21672525   17.28378113
    8    0.74102357  -12.48360204    8.67412617  ******************************************   9262.83864285 4649.95805088 3833.39815740
    1    0.52957217  -13.69219958    9.16945737     63.03714421  352.20860970 -147.08886951     17.27184410   17.36127508   17.20623098
    1    2.04366484  -12.41020996    8.54743355   -328.10531912  -16.73314638   27.65585585     17.15887411   17.24761964   17.25908398
    8   -6.16226894   10.84324961    0.58840117  -4199.32514416 -602.16960463 1282.62847025      3.41743852    4.22388065    4.64814565
    1   -6.42467523    9.69221872   -0.00034761     71.52414465  292.17644835  142.53365134     17.27348031   17.33402081   17.29095573
    1   -7.35305422   11.33817612    0.86672463    298.13948678 -122.55280700  -74.65793939     17.33479054   17.21945733   17.23055205
    8    3.35210671   -7.98030353    5.85620630    -55.03423729  140.49127758 -371.06373985      4.32940497    4.33278148    4.32387006
    1    2.36964504   -7.22711345    5.40028308    236.74835283 -190.89704263  110.40932140     17.31578785   17.19900790   17.28238559
    1    4.09193067   -8.21943724    4.79043783   -186.83472841   56.63428957  262.13744813     17.20067796   17.26706277   17.32366705
    8   -5.73032091   12.17435784  -13.02637132   -287.65587346  233.64300667 -123.91887675      4.32532819    4.33417057    4.32816690
    1   -6.73561863   12.67110018  -12.33135994    246.59258069 -120.45207878 -176.29505722     17.31948850   17.21999494   17.20339404
    1   -5.92298113   12.64173678  -14.24490145     43.74577588 -111.05609214  295.76142536     17.26357210   17.22302070   17.33180385
    8   -1.88772492  -12.49015393   12.30902949    198.08660123  329.21090127  -38.32001525      4.33354215    4.33551071    4.32956283
    1   -0.59894861  -12.31226644   12.09025708   -317.59124503  -33.34271831   47.86377910     17.16607148   17.24602501   17.26413166
    1   -2.37687177  -11.26554388   12.34763218    120.48490434 -295.04984809  -10.21957695     17.28546450   17.17380176   17.24943801
    8    5.80172726    4.74090359   -3.88437675    -27.93033020 -194.32764192  341.25930525      4.32972245    4.32685685    4.33598819
    1    5.17546447    3.60602075   -3.63901226    152.96667265  280.11631594  -57.89439653     17.29378991   17.32905761   17.23746740
    1    6.30855266    5.08483306   -2.71591495   -129.43528225  -86.21184567 -285.30852666     17.21646001   17.22880312   17.17507415
    8    4.21604403    4.69782250  -12.38700210    165.13155433 -371.68312287   14.70850442      4.33300993    4.32375526    4.33051766
    1    5.22168047    4.29143714  -11.63600440   -248.89788533  103.86955562 -186.02241502     17.18444251   17.28156102   17.20155895
    1    3.88575990    3.62781735  -13.08438618     81.04480000  264.89086219  170.46703923     17.27474328   17.32496394   17.29856923
    8   11.82771468   -8.44059130   -6.33473640   -115.96611184  387.63231625   18.54751205      4.32814783    4.33692819    4.33061336
    1   10.59839559   -7.96446494   -6.28503196    303.18567597 -117.06491504  -13.59727393     17.33528733   17.22049654   17.24828815
    1   12.58804250   -7.36248822   -6.32761754   -187.87524636 -268.93921326   -3.42086847     17.20141877   17.17877346   17.25053581
    8  -12.89774675    7.06336531   14.29490759   -204.03692853   32.34196002  348.87784527      4.32662218    4.33088434    4.33621728
    1  -14.19903281    7.18789072   14.47248643    320.27929423  -34.53664775  -44.36518196     17.33971009   17.24200783   17.24032299
    1  -12.40923142    7.04003288  -13.54565670   -117.33365839    2.34196369 -303.03166563     17.22126735   17.25201206   17.16968932
    8    0.11038713   -3.87293168   11.00343557    344.09310817  574.72390315 -212.43593220      4.34450506    4.40333625    4.28780652
    1    1.40653092   -4.10539830   11.08352491   -330.60903696   46.29676754  -14.80077751     17.15994797   17.26225013   17.24929906
    1    0.03198326   -2.57419831   10.78531649     20.19450080 -328.29898719   57.15857645     17.25808866   17.16113370   17.26866150
    8   11.98608882   -0.01455855   -8.63624997    234.91217784  300.87137303  -19.85247010      4.33401787    4.33533014    4.32942237
    1   13.29988527   -0.00540508   -8.75584563   -321.11665195    5.79366657   30.06304481     17.16594370   17.25612491   17.26093460
    1   11.66000401    1.26325718   -8.60038085     79.30065185 -307.65794175  -11.80593457     17.27423736   17.17061879   17.24900827
    8   10.04926552   10.01205435    6.18675945    286.59010676  199.08572531  186.26027925      4.33508049    4.33354535    4.33347809
    1   10.12840119   11.31414696    6.38360893    -16.16678259 -319.26818020  -48.79298296     17.24910709   17.16600217   17.23889039
    1   11.14812852    9.53801620    6.74194070   -269.45541756  122.83466411 -135.83534321     17.17961158   17.28718674   17.21547911
    8    5.17631243   13.13771421    0.26741596   -221.29281612  369.38452973  177.86850495      4.36343315    4.43467287    4.37283062
    1    4.17625899   13.95537219   -0.00040160    261.90518507 -227.01099198   65.55965362     17.32761762   17.18445749   17.26996150
    1    4.58917913   11.97743188    0.48962739    145.34586158  256.29483483 -113.16572446     17.29202309   17.31473875   17.20740635
    8   -0.89109661   11.88617574   -2.36803626    157.57490575  208.48446688  292.32424042      4.31228369    4.32961321    4.35282226
    1    0.00098384   11.50119804   -1.47560291   -219.16487881   87.53033399 -231.67313189     17.19279850   17.27485692   17.18625412
    1   -0.75429571   13.19762616   -2.41078883    -27.64819087 -332.20501406   -1.40622248     17.24641081   17.15995413   17.24928263
    8    4.81028612   -0.00178802   14.19708800  42969.5378010188387.62730065**************     14.58235079   25.15739365 -121.15537197
    1    5.86096803    0.74968346   14.46512586   -257.77913577 -198.65711906  -53.50162078     17.18266910   17.19499243   17.24071037
    1    4.56736038    0.23227584   12.92183447     72.55093462  -54.20608656  291.67546603     17.27543349   17.23827651   17.32627688
    8    5.02081716  -13.25425014   12.58183023     34.41952414  118.90114324 -383.94071437      4.33069470    4.33234744    4.32353881
    1    6.10004689  -12.78905253   11.98241874   -262.02360585 -117.82211034  151.07481985     17.18183972   17.21978904   17.29437888
    1    4.10486917  -13.25772508   11.63242194    227.11616931   -0.85916202  234.67635262     17.31470394   17.25206301   17.31669951
    8    7.72040794    0.01942366   12.23989869  **************  230.33387414**************     -4.79491018    4.45188611    1.48417778
    1    7.38670651   -1.25327836   12.14382540     90.29742867  318.52094223   33.76392066     17.27918601   17.34015208   17.26400144
    1    9.03808403    0.00008420   12.30167795   -176.76936592  -21.68203192  719.57723268     17.24064196   17.23983790   17.62901798
    8   -1.71665594    5.77489258   -9.62101944    183.00436692 -277.56715161 -227.27248475      4.33210395    4.32625443    4.32520522
    1   -0.42099657    5.65439726   -9.83824028   -321.36670592   25.98918462   68.08574911     17.16434263   17.25861303   17.27448012
    1   -2.24269147    4.73874495  -10.24553966    128.49821833  256.40734808  162.76296835     17.28722308   17.32236974   17.29868860
    8    7.47892216  -11.87228789   -3.92372219    248.87574224  -81.97878347  297.49198255      4.33450625    4.32888225    4.33524383
    1    8.17316814  -11.02463941   -3.18887956   -172.73078492 -210.80434859 -177.12577326     17.20530192   17.19465230   17.20510194
    1    7.78735118  -13.05400408   -3.42491341    -78.35869206  289.54959309 -121.24371867     17.23078985   17.33097850   17.21975803
    8  -12.69091850    3.13656973   -0.00449345   6479.0515572718600.30868687  139.43416926      5.85451313    8.82266294    4.36268840
    1  -13.67636558    2.25950901    0.00071811    473.57081684  -81.55466723  -12.78123280     17.43808315   17.15678369   17.24634497
    1  -11.60147690    2.39257247   -0.00310612    -16.02494725  287.04761227  -16.58723615     17.31000435   17.35611813   17.24426910
    8   -3.40573462    7.71560654    1.20638874    156.43388988   -8.60383332  364.60277186      4.32845756    4.33059474    4.33877646
    1   -2.16151759    7.39001724    1.50026408   -294.24074548   92.67463011  -78.56703313     17.17521161   17.28097303   17.22899892
    1   -3.92634313    8.06646613    2.36668857    130.80065245  -79.35721024 -286.30662704     17.28778074   17.23267389   17.17411377
    8   -7.78274035    0.62850752    0.06978770    145.82278275 -452.15756644  217.06464188      4.34297369    4.27373833    4.33830177
    1   -6.58680305    0.07478616    0.01017420   -296.70784034  135.06384072   22.54434882     17.17113853   17.28890442   17.26030573
    1   -8.37611309   -0.00000436    1.06642067    149.37894972  150.38863477 -229.33114361     17.29354895   17.29251470   17.19387587
    8  -10.45750201    3.59281602   -5.57331840    134.46238536  342.61592443  186.69310312      4.33265545    4.33619043    4.33348048
    1   -9.33440642    4.25571244   -5.77252812   -277.83745222 -166.71172155   47.64540800     17.17609712   17.20634941   17.26508198
    1  -11.07161528    4.28151735   -4.63045721    149.84582875 -173.79015272 -233.88529746     17.29292083   17.20418413   17.18829360
    8   -9.73564259    5.10595373    8.43184241   -174.30422575 -100.50265623 -356.17920293      4.32731024    4.32846166    4.32392311
    1  -10.90750409    5.50363697    7.97471504    287.17065745  -99.18832914  118.08334068     17.33059635   17.22518068   17.28595743
    1   -9.28428585    4.29725031    7.49235110   -115.34820085  196.32499568  232.07283186     17.22049807   17.30535672   17.31579262
    8    6.81413695   10.47026321    9.62988167    152.44341937 -272.62167452 -250.94778129      4.33282416    4.32557677    4.32587152
    1    6.94273019   10.54344316    8.31897067    -28.79593066  -19.59322720  320.81877415     17.24511044   17.24681584   17.33978775
    1    7.29533460    9.27960029    9.93181103   -118.20486473  290.32715845  -72.92438996     17.22024744   17.33103851   17.23289218
    8   -8.36933989  -12.92809839    0.55875928    233.68286660 -225.47580659 -220.02256572      4.33419143    4.32643774    4.32650058
    1   -7.21321722  -12.61027834    0.00848009   -286.87615914  -82.05165238  132.89472224     17.17385768   17.22930860   17.28784186
    1   -8.56183403  -14.18162792    0.19549790     48.91183523  306.32274456   85.88191717     17.26593360   17.33522092   17.27527132
    8   -5.92911306    0.32605982    8.36213277    658.62107093  847.32438664 -589.39394719      4.42972759    4.48428001    4.20691085
    1   -4.78320089    0.00022677    7.79544258   -282.36817991   77.72169469  139.44833465     17.17525598   17.27274790   17.29009571
    1   -6.00201941    1.63396823    8.20562777     17.52113745 -317.78759273   36.62417915     17.25677343   17.16717122   17.26188364
    8   -1.08874142    0.97200608    7.69449922     40.85369735 -397.76053880  -70.37417898      4.33069259    4.32343765    4.32875077
    1   -1.19108999    0.28736114    6.57149184     24.30695998  170.86125167  276.96683711     17.25884122   17.29961049   17.32838627
    1   -0.81720523    0.05532452    8.60354855    -64.05301821  233.10567798 -216.07684546     17.23584613   17.31719793   17.19531393
    8    4.71022116   12.05789385   13.41177576    104.71828540 -274.96053656 -271.10380193      4.33189803    4.32529113    4.32560318
    1    5.45715379   10.98294059   13.57601754   -180.84484944  268.36344430  -43.28001450     17.20368070   17.32686065   17.24015843
    1    4.41496135   12.04798707   12.12605375     75.18832606    6.37525675  314.46257274     17.27342025   17.25507776   17.33791137
    8   -1.11434149    7.25100873    0.00028716     39.34742026 -409.65179094    7.03781067      4.33540388    4.32211296    4.32822769
    1   -2.12299563    6.40072873   -0.00035040    237.70183291  216.19663960   -5.87205058     17.31452467   17.31299290   17.24964600
    1   -0.04527927    6.47801752    0.00085514   -264.45701876  191.52363814    0.68848712     17.18023977   17.30479590   17.25301190
    8    7.35245122   -0.01042152    7.78182541     19.73595799   18.10158294  392.47807437      4.33049634    4.33073292    4.33700450
    1    6.38303180   -0.00351719    8.67658128    237.78824495   -5.34603885 -216.84529866     17.31706909   17.24944786   17.19465866
    1    8.45515506    0.00402055    8.50590538   -268.29375526  -10.01189409 -181.17128599     17.18019149   17.24806569   17.20255304
    8   -1.42585515   -8.73534089    6.45187021   -390.53719867   96.64334756  -81.47399697      4.32330296    4.33185051    4.32868378
    1   -2.07271729   -7.62938999    6.76631586    163.42448561 -273.71076989  -72.85477027     17.29798493   17.17773655   17.23375700
    1   -2.32578234   -9.46207869    5.81758249    224.97806959  179.53048405  157.11272667     17.31462502   17.30153194   17.29538289
    8    5.43945637  -12.44814967    6.25678594    364.93448515  149.68025421   21.85066963      4.33641620    4.33266707    4.33061637
    1    6.59065584  -13.08358895    6.15010242   -283.98401647  156.69832276   24.38496580     17.17520584   17.29556475   17.25897499
    1    5.78617062  -11.19129455    6.45816969    -84.74438057 -307.92371732  -49.98622501     17.22932018   17.16944786   17.23878013
    8   -0.59406187   -3.94053331  -10.64872329   -148.52252774  371.00124338   -5.39294554      4.32472965    4.33626844    4.33116708
    1    0.00005651   -2.76291992  -10.62196424   -149.94797054 -272.14382053   -4.89189108     17.21077761   17.18278345   17.25156626
    1   -1.88062125   -3.64882267  -10.65534287    313.84421389  -75.28050914    2.53534238     17.33707052   17.23138645   17.25317935
    8  -14.13722557    3.99126002  -11.39715440   -385.91686500   39.42606751  109.57383666      4.32350827    4.33099826    4.33204997
    1   14.18396940    3.09021587  -10.78557439    187.30877113  221.50084320 -153.12939419     17.30447069   17.31278516   17.21031629
    1   14.11777545    5.01940448  -11.55805953    202.13077728 -257.35813410   38.52630305     17.30775496   17.18147087   17.26262569
    8  -12.53534021    0.80300631    3.32649834     34.85877768 -391.40703667  -35.24638020      4.33682706    4.32534706    4.32986788
    1  -13.57728026   -0.00498014    3.28318800    220.79448877  203.21913296   14.76533259     17.30375747   17.30957069   17.25767630
    1  -11.49854521   -0.00832133    3.24159481   -257.38879270  199.95551190   24.86557563     17.18136223   17.30700312   17.26012674
    8   -6.53214455    7.50297897   10.47143554    313.56999925 -224.97054662  113.34027109      4.33560223    4.32637636    4.33223303
    1   -6.39045370    6.19652196   10.35537759    -36.74967626  321.21698224   25.05791593     17.24202029   17.33996701   17.25857743
    1   -5.40012022    7.89919647   11.02097248   -274.49466646  -95.67626249 -137.45544596     17.17847761   17.22681122   17.21449911
    8   13.06957967   -4.69284817    7.97468960    169.33962211  352.93830526   20.68600728      4.33305873    4.33612958    4.33053723
    1   12.89677971   -3.66951479    7.16023254     42.71542705 -251.05681572  202.48092461     17.26422802   17.18461373   17.30803586
    1   13.93494307   -4.24876203    8.86597972   -213.43041466 -105.36333648 -219.68336929     17.19451707   17.22484085   17.19274051
    8   10.78522740   -4.34928460   10.99916293   -356.80777336  -76.38731646 -165.19241071      4.32403391    4.32884179    4.32752728
    1   10.18407887   -5.51350732   10.84565714    149.68541624  287.24423915   37.17600399     17.29332210   17.33068023   17.26215889
    1    9.95445195   -3.48585754   10.44717163    208.18158483 -209.93524095  133.13000557     17.31000101   17.19564546   17.28799498
    8    4.93811106   -8.84148236   -9.15518703    366.02639608 -129.79490721  -56.31102758      4.33633686    4.32800465    4.32938108
    1    6.06593468   -8.17514233   -8.99875011   -277.67635944 -162.51626866  -43.25724217     17.17687396   17.20800147   17.23976829
    1    5.32591884  -10.03252453   -9.56917795    -89.42608993  292.34952567   97.19977472     17.22955949   17.33169451   17.27751821
    8    7.07984977    0.13520935   -6.45504950    107.38681143  133.97073137  449.86029347      4.31419514    4.35624072    4.37272694
    1    8.36914929    0.00018525   -6.21024560   -316.70470893   30.72382435  -60.84049760     17.16660274   17.26000463   17.23619443
    1    6.55429038    0.38239251   -5.27051710    112.48384951  -61.83714629 -283.03778551     17.27898906   17.23542417   17.17761243
    8    3.28071690    7.99971528    6.41608188    379.45502311 -137.79413975   -5.20472773      4.33689361    4.32802934    4.33014870
    1    3.66362501    6.75249303    6.61155419    -96.83326286  304.73835155  -48.51915130     17.22538923   17.33491185   17.23891755
    1    4.40853361    8.65012031    6.20289426   -280.25353215 -166.40226806   53.32967040     17.17564810   17.20592619   17.26729003
    8   -8.68152898   -1.25052180   -4.38053175   -346.36553708  179.16781638  121.40733933      4.32422833    4.33330787    4.33239569
    1   -9.87493517   -1.80425843   -4.28294897    294.48550555  127.80010018  -26.95658145     17.33265953   17.28557100   17.24469666
    1   -8.87864181    0.00003850   -4.00946726     58.02725105 -304.47226697  -92.19132217     17.27008436   17.17081030   17.22698231
    8    6.06643386   -3.55884922  -11.05665936    180.58161608  350.26097791   34.40444956      4.33338802    4.33610887    4.33088399
    1    5.51994154   -2.41698818  -10.68525715    131.57894509 -279.78866045  -94.41173276     17.28731050   17.17675232   17.22572994
    1    7.32400179   -3.24549423  -11.30317717   -314.15952602  -76.80109140   57.12040362     17.16603315   17.23178030   17.26712560
    8  -11.74401072  -12.18044928   -8.96069238    -41.15543672  388.19739113  -39.69868698      4.32954870    4.33678953    4.32970681
    1  -12.81885326  -11.53619513   -9.37304593    264.14611727 -157.70968447   95.68367870     17.32427741   17.20972610   17.27727877
    1  -10.85688393  -11.22499152   -8.75928094   -219.00591825 -235.28401301  -54.34999818     17.19274460   17.18875152   17.23660996
    8   -3.81720149   -9.66451852   -3.37055528   -155.36631004  322.00815878  163.92626583      4.32760734    4.33565375    4.33304638
    1   -3.21145401   -8.52460213   -3.09828829   -149.39287795 -279.17348595  -69.71786236     17.21153812   17.17696331   17.23324763
    1   -5.06482927   -9.46100189   -2.99320704    303.98743913  -47.60849887  -92.91718691     17.33490726   17.23979260   17.22744225
    8    5.27788776   -8.24450910  -12.92809839   -309.19656940  244.78387804   89.76790431      4.32479434    4.33447353    4.33174252
    1    3.98882595   -8.52390312  -12.95311387    321.50111173   66.48213572    5.04496426     17.34066613   17.26985010   17.25375079
    1    5.32401850   -6.98542006  -12.53692312     -9.42170652 -310.09798147  -96.66767634     17.25039348   17.16796483   17.22601372
    8   10.98188676   -0.00040211    0.95339427     20.97925236  182.70588270 -342.87880683      4.33308229    4.33624201    4.32488040
    1   11.89093748    0.85714120    0.53066837   -227.48046098 -202.98989601  104.15949991     17.18984374   17.19935321   17.28094811
    1   10.07385158   -0.00055801   -0.00359052    205.61311035   12.87933651  231.81644750     17.30403863   17.25889106   17.31447675
    8   10.46766390  -14.03535406   -0.00995093    104.29221190 -534.73462283  196.17143938      4.33503427    4.27314507    4.33336679
    1   11.65150706   14.46111894    0.11166236   -286.24100099  135.23112392  -25.34755012     17.17608183   17.28810256   17.24674525
    1    9.66472105   14.24923048    0.68669922    196.54382122  191.07476359 -166.98944661     17.30606223   17.30434402   17.20803750
    8    0.00978062   10.74551103    0.66742255    299.43658577  156.71646046 -237.45758555      4.33554793    4.33280947    4.32616696
    1   -0.00080715   11.88275198   -0.00115453      4.32200040 -272.15329708  179.44869241     17.25334133   17.18025889   17.30516767
    1    1.20308262   10.24060082    0.41940578   -300.21624079  122.99743413   66.33409541     17.16924097   17.28574758   17.27149062
    8  -10.37809971    7.74158308   11.10075906    215.23492756   29.46385126  329.80579935      4.33382961    4.33089696    4.33576861
    1   -9.98971200    6.73624938   11.86159899    -98.56479159  242.73834043 -186.82537973     17.22530351   17.31755488   17.20203200
    1   -9.88822937    8.80702730   11.70517781   -121.65967677 -267.28213454 -147.99513944     17.21931829   17.17848251   17.21250063
    8   10.87092037   -0.01372256    4.75768011    -29.40163029  391.75476350  -25.52804052      4.32996625    4.33714805    4.32955621
    1   11.81714350    0.88407968    4.56000949   -233.03801844 -214.20119680   51.35925399     17.18884560   17.19585387   17.26724805
    1    9.77073242    0.70386743    4.88034115    267.66545363 -177.96218658  -29.80794972     17.32473243   17.20406856   17.24441528
    8   -8.22853120  -12.14145541    9.15179594    -36.62969275 -392.55181106  -33.42553961      4.32941397    4.32354259    4.32970810
    1   -7.78896549  -12.90445627    8.16945883   -103.80820680  185.89903176  239.40590238     17.22552140   17.30266806   17.31694705
    1   -8.79577375  -12.99107796    9.98652120    143.37457163  205.89835077 -203.63340268     17.29268897   17.30770591   17.19730605
    8    0.00068716   -5.64727437   12.19633579   -247.30589630 -367.45662772  456.46486166      4.32286613    4.26451423    4.37190673
    1   -0.22067902   -6.85602587   12.67623514     51.97804646  297.13429361 -107.39590982     17.26619493   17.33280311   17.22628436
    1   -0.79861969   -4.87178797   12.90354925    197.36707433 -199.53490286 -190.26297733     17.30592006   17.19601511   17.19670809
    8  -12.77497686   -0.72717919   10.15741669    165.31103869  359.53973482    5.28784382      4.33257877    4.33587743    4.33225231
    1  -12.49341158   -0.00027291    9.09311395    -58.83331699 -187.58958205  236.84248149     17.23891277   17.19946410   17.31083958
    1  -12.33338900   -0.00053035   11.16610089    -99.61048270 -179.58625743 -254.18300934     17.22779079   17.20348602   17.18201666
    8   12.03850180    5.78304086   -0.00070991  27165.0550624013817.04999843 4258.33528806     10.83630372    7.55631877    5.26873516
    1   10.97166301    6.55904333    0.00863232    133.02677802 -133.90782880   -9.07007309     17.25664253   17.23005495   17.24840886
    1   12.12280249    5.34145247    1.23957961    -26.26174128  105.19758372 -304.93751157     17.24397385   17.28000402   17.17003984
    8   10.49257671   -0.77492538   -2.21934395  -3607.72190028************** -603.17035352      3.49972433    1.99763266    4.19578009
    1   11.17019503   -1.90635835   -2.18635084   -172.32522635  277.25517818  -11.54644701     17.20482090   17.32748914   17.24833455
    1    9.24818290   -1.15441583   -2.43801935    303.02007133   99.43702146   52.00630076     17.33415335   17.28085848   17.26624785
    8    1.07219598    0.01978894   -8.78265175    -30.13316770 -393.21877647  -54.96887905      4.32967031    4.32336152    4.32947015
    1    0.00784896   -0.75880367   -8.81896137    268.46452687  182.47666327   20.99047661     17.32723678   17.29974343   17.26052949
    1    2.08242898   -0.81280935   -8.94578387   -241.30715303  201.60931815   34.13106435     17.18893709   17.30660331   17.26021631
    8    5.47136649   -8.37035166    9.79055201    324.45924734 -114.72937248  196.84543626      4.33570254    4.32831425    4.33360624
    1    5.94407831   -9.59616347    9.91024004   -112.63707010  303.52518660  -28.28947865     17.22249624   17.33555506   17.24477853
    1    6.32294024   -7.63159621   10.47577375   -207.06075108 -186.65862648 -165.17870962     17.19689325   17.20030417   17.20807809
    8    0.12512349   -7.36530670   -0.63551112    283.85881271 -280.89005923   63.60637129      4.33511949    4.32536448    4.33121817
    1    1.39117587   -7.34687846   -1.00592961   -313.50898222   -1.89382852   93.84918353     17.16650582   17.25231369   17.27890704
    1   -0.00361269   -8.51192798    0.00407313     32.41267345  280.29060594 -154.59623483     17.26119033   17.32809280   17.21129134
    8  -11.30266418   13.77250616  -11.10482004     56.48889721 -123.98425755  384.32545909      4.33129178    4.32799007    4.33687680
    1  -12.21780664   13.33890272  -10.25930306    222.84549865  112.85188269 -212.25055157     17.31308141   17.28438818   17.19379271
    1  -10.18136652   13.72975915  -10.41104880   -282.81573503   15.56272574 -174.00412898     17.17376937   17.25759947   17.20450080
    8    9.54781917   -2.24581172    0.89606954    372.02650180  -20.15850378 -191.05339335      4.33774665    4.32920356    4.32855983
    1   10.55796359   -1.41441379    1.06593626   -238.52740016 -169.85305789  -30.76434381     17.19003129   17.21476286   17.24674782
    1    9.98947623   -3.10534156   -0.00198913   -104.92082923  226.54565177  228.96462300     17.22457805   17.31822440   17.31685406
    8   13.90238472    0.74934803  -13.91135091   -131.27566457 -367.62272739 -116.86234440      4.32784382    4.32388894    4.32806128