 BEGIN_INFO
   #
   # This is a XCRYSDEN-Structure-File
   #
   # aimed for Visualization of geometry
   #
   # Launch as: xcrysden --xsf HICOLM.XSF
   #
   #
 END_INFO
 # estrutura final
CRYSTAL
PRIMVEC
      22.19061358       0.00000000       0.00000000
       0.00000000      22.19061358       0.00000000
       0.00000000       0.00000000      22.19061358
PRIMCOORD
  927    1
    8  -10.65635628   -2.42406841   -4.20532695     38.23362927   38.61128578   58.10319458      4.42788096    4.42941140    4.47999120
    1   -9.97174534   -2.29325095   -4.87870391     -2.89743595   -3.82730534  -14.58897011     17.14063574   17.09935375   16.65234536
    1  -10.18564776   -1.96857247   -3.40740857    -34.08551989  -27.95215974  -41.65875018     15.86457875   16.11274339   15.54853697
    8    2.85240550   -4.04664577   -0.85671145     14.58797960   75.82659165   34.04521006      4.36787935    4.52584113    4.41730782
    1    2.74444161   -3.84830056    0.11976130     -0.79221198  -12.19174972  -30.53840755     17.21833883   16.75355142   16.01149130
    1    2.62185898   -4.93681717   -0.94689757    -17.14329421  -57.10854075   -0.24428778     16.54833717   14.91315734   17.24331915
    8    2.30898919    4.93226015   -3.64592946    -19.35961346   24.60904778   58.71977505      4.27934079    4.39404649    4.48134607
    1    2.84655901    4.20721432   -3.94157208     18.46850696  -24.02950819  -13.66472921     18.01373977   16.26350448   16.69346633
    1    2.49222563    4.94795774   -2.65867764     -7.91306760    1.97785723  -46.93777848     16.93337227   17.33237228   15.33274579
    8  -10.99955288   -6.05876025   -0.44400060     14.01704673   57.73119208   42.21432748      4.36605256    4.47867851    4.43859369
    1   11.07477742   -6.26020108    0.51844140     -2.80894613  -12.11490013  -28.13242285     17.13800627   16.75719433   16.10324542
    1  -10.73647736   -5.08176659   -0.37426682    -11.06458284  -43.91380204  -18.62748618     16.80189072   15.45926205   16.49337728
    8   -8.28966145    3.76895436    0.02416598     31.07411366   40.73066600   29.52371171      4.40964844    4.43399617    4.40579110
    1   -7.75783932    4.50833466    0.45518370    -18.56609090  -27.90483931  -24.28074824     16.49947509   16.12803515   16.26937561
    1   -9.10873739    3.83256644    0.53283984    -13.30538525   -7.40759186    0.04872119     16.71018539   16.95119574   17.25559444
    8   10.21692811   -8.71761346   -6.61542277      3.47568467   25.06428155   41.16005208      4.33886262    4.39386602    4.43519155
    1   10.50771514   -8.93849074   -5.68483248     -3.52651224   -7.76554182  -27.26106877     17.11276086   16.93640864   16.14681598
    1   10.01537054   -7.75360359   -6.48753804     -1.88321025  -16.80045345  -13.09972065     17.17392911   16.57697099   16.72279395
    8   -8.92812047   -4.73637396    5.04146623     31.32520187   49.98999467    5.88060549      4.40972565    4.45945331    4.34575284
    1   -9.31998256   -5.56203165    5.26597367    -10.71520054  -43.53400881    5.73989207     16.81801596   15.46836377   17.48350097
    1   -7.95898764   -4.88784337    5.14726503    -18.80499223   -8.56452754   -4.45246740     16.49716039   16.89405233   17.07098491
    8   -8.25876158    8.88584042   -6.70636811     64.64721837   21.43843204   53.49674506      4.49656011    4.38447549    4.46857761
    1   -8.15177980    9.61830948   -7.31233261     -8.97241104    5.87928811  -15.96890135     16.88899346   17.50529741   16.59156269
    1   -7.52355792    9.13384041   -6.02148829    -48.94257326  -25.65191441  -37.70918880     15.25160035   16.20669622   15.70762460
    8    4.03288970   -3.78481162    2.91221819     39.91899716   66.47951288   34.30765433      4.43229400    4.50175661    4.41826700
    1    4.01911193   -4.68797813    2.69196367    -22.38372025  -43.04861434  -23.83748139     16.33720291   15.49534473   16.27611848
    1    3.21979048   -3.35336858    2.62118787    -18.51055930  -22.91145622  -15.30685444     16.50556549   16.30583450   16.62822109
    8   -2.15018222    5.22673060    4.73513427     57.62520065   32.12403706  -13.14371056      4.47907741    4.41290339    4.29646413
    1   -2.37547902    4.35395198    5.02348666    -26.05209745  -22.36185242    7.13517734     16.18516486   16.34168716   17.54045345
    1   -2.94363508    5.72835515    4.65627402    -29.83511333   -5.21146125    2.63570934     16.02688996   17.03688916   17.35841839
    8    8.68405368   -2.58914861   -7.75079814     29.48386474    8.00632517   49.06547528      4.40528050    4.35060180    4.45603620
    1    9.67593565   -2.71481586   -7.71288252    -24.35423932   -2.26408719  -12.98059471     16.26435259   17.15972759   16.72601335
    1    8.51852035   -2.37488931   -6.78533493     -3.98261521   -2.27232499  -36.89991450     17.09453375   17.16340056   15.74601487
    8    1.15843334   -6.29391836    9.56817419     57.25196490   34.83318414   19.11559336      4.47734019    4.41896588    4.37883958
    1    0.73340288   -7.08752228    9.30494683    -38.77809956  -20.14133141  -17.08934418     15.67199976   16.44560152   16.55933255
    1    0.61362746   -5.53359987    9.30938603    -19.14545054  -16.48454904   -8.45133312     16.46750541   16.57380873   16.90648292
    8  -10.64079662   -1.64427117   10.40595440      6.93963230   55.89545915   16.15709852      4.34728623    4.47376937    4.37220298
    1   -9.89456464   -1.04328796   10.09104109    -22.94540847  -28.77574524   -0.07790640     16.31580232   16.08129529   17.24788105
    1   10.99280478   -0.97169575   10.92132444     10.27257376  -28.84632513  -21.18897802     17.68004280   16.07169400   16.37946371
    8    0.70689879   -6.57373468   -3.91542930      8.41651020   62.95343235   22.90882770      4.35177703    4.49217784    4.38938298
    1    1.34592883   -6.39231701   -4.64327040     -5.35880579   -5.28426843   -3.93233393     17.03256720   17.04233717   17.09106771
    1    0.62349344   -5.63905957   -3.50716986      0.21312208  -46.63936456  -21.16437711     17.26592130   15.34701240   16.38208119
    8    5.50547843   -7.12040572   -6.10049561     29.96567405   50.09088654   48.12826491      4.40689718    4.45930959    4.45346804
    1    6.05920177   -7.79527466   -5.64611313     -6.79479931   -8.28257666  -12.61217615     16.97958909   16.91193132   16.74079647
    1    5.72917510   -6.30701653   -5.51641937    -28.96268861  -41.80303122  -42.61402927     16.06685257   15.54261955   15.51218856
    8   -9.88388865  -10.39817682    5.00170182     -6.99291931   18.51178706    2.43021381      4.31110521    4.37802939    4.33714887
    1   -9.99237972   10.99914811    5.54953240      4.85823452   -7.46270573   -1.82178830     17.45622770   16.95092078   17.17078884
    1   -9.00179967  -10.50517463    4.59597285     -1.06632392   -9.56805287   -0.81480047     17.21847962   16.85421296   17.21476365
    8  -11.07885253   11.05737146    1.76233624     63.31857425   34.86141261   44.34398577      4.49307772    4.41949389    4.44461430
    1  -10.90958180   10.33595471    2.42342136    -14.49475004   -0.62869551  -12.67839676     16.65976295   17.23226710   16.73196325
    1  -10.33858526  -10.46364970    2.04187405    -45.14050764  -33.47887889  -29.61401453     15.40991379   15.88333630   16.04247603
    8   -7.50367129    1.69432538    2.12201749     27.90286980   40.36581783   61.19670553      4.40197040    4.43421024    4.48757261
    1   -8.08575510    2.20520667    1.58311685    -12.60623832    8.13807174  -15.32798854     16.74035528   17.58468457   16.63019818
    1   -7.29711880    2.35706456    2.89519138    -11.87703177  -51.02251794  -45.00357873     16.76571003   15.16327099   15.40987283
    8   -2.85720390   -8.51533343   -3.09162678     45.09185228   69.59105058   16.31090789      4.44577125    4.51001082    4.37253290
    1   -3.69289126   -8.91191127   -3.19297410    -34.57831280  -41.04305122   -4.15353066     15.84589620   15.57464767   17.08396127
    1   -2.17921785   -9.20764787   -3.11819745    -10.80527997  -26.33795531   -5.00992921     16.81082543   16.16761182   17.04560011
    8    8.77200578    3.74689648   -7.23562657     23.69885582   -8.17069489   66.26940220      4.39131298    4.30916042    4.50120238
    1    8.06750444    4.04980981   -7.76468502    -17.03591454    7.28375036  -41.60437742     16.55905790   17.54730302   15.54781085
    1    9.44495102    3.38266981   -7.81051463     -2.14749761   -2.16891188  -24.23732915     17.16223405   17.16304576   16.25833076
    8   -7.76824963    9.44867531    0.70487536      4.12419423   51.75675903    7.07306376      4.34130849    4.46318317    4.34715351
    1   -7.75044093    8.55951179    0.42369857     -5.09903934  -38.77280476    2.06281958     17.04011845   15.67578251   17.34389305
    1   -8.05730030    9.42901150    1.63927489      1.88947319  -15.29171467  -10.07307595     17.32628351   16.62143063   16.85049054
    8   -5.90394722   -7.65621724   -7.61641920     49.47998297   13.48647825    7.52393339      4.45699192    4.36458930    4.34938492
    1   -5.36784027   -6.93919042   -8.03133290    -23.66431223  -17.24474865    5.12596372     16.28946438   16.54976624   17.46206484
    1   -5.19788890   -8.08578111   -7.04749553    -27.79358389    7.35351111  -12.37423653     16.11905389   17.55718672   16.74741912
    8   10.46689949   -2.98070888    8.30248860     33.79814862   38.64125213   41.77033552      4.41666117    4.42911963    4.43709345
    1   10.98131387   -2.40242384    8.97714557    -31.23734768  -28.36275282  -34.69397545     15.98114026   16.09325153   15.84382692
    1   10.72004495   -3.87131523    8.61050845     -2.86234570  -11.70206340   -6.46300170     17.13715936   16.78007256   16.98790665
    8    7.24627118   -5.53135338    1.94044033     56.85908130   29.75087993   61.32811396      4.47670819    4.40681955    4.48813121
    1    6.84371163   -5.32482349    2.83273872      2.36622436  -11.15351788  -37.96536942     17.35579875   16.79601794   15.69504605
    1    8.23584449   -5.34036265    2.16411594    -52.30053714  -11.34447261  -28.41769045     15.10855361   16.79195943   16.09191366
    8    8.95626713   10.46929138   -1.71760716     61.75091044   50.57877151   13.94572809      4.48903140    4.46063705    4.36602376
    1    9.89002959   10.37173908   -1.34215176    -35.94707527   -3.42325700  -16.97304591     15.78788146   17.10860028   16.55994082
    1    8.59872841    9.62853531   -1.65727255    -16.02471252  -46.87422641    4.90490002     16.59911147   15.33669633   17.45233861
    8   -8.45687435   -1.77849706   -5.83969999     34.30343330   38.78496119   58.02847982      4.41800179    4.42948027    4.47953452
    1   -7.95908082   -2.39124281   -5.21923010    -20.66050153    1.95844562  -26.51786923     16.40568778   17.33820610   16.16528048
    1   -8.16014674   -0.87944249   -5.44349308    -20.44972775  -42.20915735  -32.20478212     16.42163649   15.52768604   15.93846309
    8   -9.32623850    7.38395823   -4.42602045      9.22696232  -17.19795768   17.95779992      4.35301258    4.28567129    4.37697136
    1   -8.38316581    7.12552458   -4.52381494     -5.35425095    3.66099342    0.32926141     17.04573345   17.40244673   17.26355565
    1   -9.46308544    7.99058052   -5.14483263      1.50437227   11.57847286  -15.50621491     17.31800580   17.72772280   16.61305851
    8    7.04543498   -8.91296133   -0.83185486     16.53868463   -4.51659953   38.96501208      4.37151501    4.31851751    4.43007954
    1    7.67122009   -8.95578333   -1.56051631      1.51828791   -1.26201365  -17.02232744     17.31882214   17.19996957   16.55314506
    1    7.65796133   -9.01535017   -0.04700422    -21.56937535   -0.02400189  -21.93707946     16.38347780   17.24964090   16.36429686
    8   -8.61838749   -1.47637658    5.63950242     26.67647926   26.62319771  -24.49234229      4.39954065    4.39819347    4.26681079
    1   -8.77669093   -2.35952420    5.90839168    -13.80111315  -21.70468738   13.19686410     16.68633450   16.37008344   17.78951860
    1   -9.34624344   -0.94572224    5.99444430     -9.65036009  -10.73061163    3.95286912     16.85029467   16.81284911   17.41582641
    8   -2.72200454   -8.57096175    8.72801616     65.34255686   40.16937715   -5.06880351      4.49873132    4.43366587    4.31706747
    1   -3.47081624   -8.02941001    8.48068618    -31.94715177   -8.90845284   -6.89504680     15.94323233   16.88497637   16.96773686
    1   -3.00320468   -9.43649860    8.86044363    -39.48215324  -45.44365021    1.55670197     15.63323747   15.38858018   17.31344111
    8    2.73689363   -8.16336727   10.92663035     68.71278036   28.24896639   40.18323863      4.50751331    4.40206312    4.43371100
    1    2.32581981   -7.52379160   10.36463036    -19.92152660   15.40478355  -16.70875997     16.43411878   17.89193660   16.56691727
    1    3.44743683   -7.56905226  -10.80331697    -46.31570311  -38.96978490  -22.05754136     15.35628039   15.66519538   16.35180714
    8    0.87667042   10.76905858    8.81866425     27.92646523    4.61014650  -11.57861188      4.40136960    4.34267636    4.29935254
    1    1.84994038   10.63926871    8.81245888    -18.69457543    4.67615600   -1.82357172     16.49837321   17.44101293   17.18181117
    1    0.62071947   10.28082184    9.60523461     -5.23231769   -6.54702281   10.34251362     17.04045081   16.97894984   17.68338337
    8    1.27660972   -9.03954415    2.60408233     -5.22349863   37.13404019   10.00695277      4.31605665    4.42550074    4.35673240
    1    2.00583730   -9.45639415    2.14568977     10.53986928  -13.59279716  -10.56402401     17.68953979   16.69370036   16.81378697
    1    1.40094227   -8.08372128    2.37460686     -3.79434105  -23.39894133    4.78324458     17.10228984   16.30159605   17.44499375
    8    0.36393914   -7.29451433   -8.93444752     43.58105934   19.25576081    6.55935501      4.44137847    4.37932404    4.34681822
    1    0.50099599   -6.44163235   -9.41997423     -8.69514270   -9.16166084   -0.31037030     16.90348348   16.88392176   17.23839647
    1    1.28712205   -7.40548987   -8.53163998    -31.76752606   -7.61237199  -12.12720427     15.96388426   16.94379361   16.75810851
    8   -8.60755895   -7.47153772   -7.76003699     34.02370911   53.80129263   24.15370971      4.41662425    4.46858311    4.39257386
    1   -7.62234286   -7.53583999   -7.54842310    -28.20552701  -10.60650638   -9.63771039     16.10984811   16.81277536   16.85974282
    1   -8.87373936   -8.34671482   -7.89033883     -2.29621890  -52.30510268   -4.52618203     17.16616183   15.11624131   17.06829945
    8   -0.02029310   -0.87916202    9.42039044     30.22155943   68.10602912   11.86262626      4.40845894    4.50549855    4.35989209
    1   -0.64597875   -1.43674606    9.84706781    -25.51015354  -40.64092233   -0.46814061     16.20564681   15.58693313   17.23364222
    1    0.25262431   -1.25989529    8.60691172     -8.79720549  -31.82877316  -17.20623328     16.88645968   15.95340027   16.55889898
    8    3.41956830    8.84855980   -7.71391585     64.67470512   38.34191153    9.26994143      4.49642043    4.42921134    4.35331844
    1    4.14570209    8.69644940   -7.01451332    -32.84284032    3.36080535  -25.33669920     15.91159491   17.38862049   16.22224024
    1    2.82346751    8.17185853   -7.56560408    -32.66029819  -41.82080227   11.59884434     15.91748477   15.53926742   17.72740561
    8    7.67622962   -9.79114143   -7.52749515     53.69047888   35.81897434   46.60200616      4.46836531    4.42250390    4.44965891
    1    7.39555335   -9.56789749   -6.58079809     -3.47595374  -16.02158138  -35.31579342     17.11528534   16.59675905   15.80856087
    1    8.66923514   -9.56468565   -7.44367301    -50.05134965  -18.26298161  -14.45383473     15.20209598   16.50530385   16.66706908
    8   -9.94532351   -5.45035072   -6.47696883     22.40829447   42.49501100   52.48590525      4.38722223    4.43973424    4.46474330
    1   -9.53742608   -6.23188513   -6.83125674     10.62726102  -24.01516230  -13.24616092     17.68932288   16.27284607   16.71375523
    1   -9.30988050   -5.21671653   -5.71428392    -36.98663324  -17.03708613  -38.59791914     15.74600478   16.55159235   15.67927783
    8    5.99928257   -7.02824154    4.36963036     14.78636608   30.05999145   33.67158492      4.36800696    4.40604340    4.41639761
    1    5.65992723   -7.50059065    5.16306960     -2.80513418   -8.29273901  -19.19169123     17.13918569   16.91669148   16.46039627
    1    6.24963632   -6.14080538    4.77829793    -11.01315954  -26.47009730  -26.92815133     16.80418896   16.18606326   16.15999056
    8   -7.59229875    6.70523618   -8.19642761     41.84432218   57.31742951   39.21063397      4.43752135    4.47768617    4.43101891
    1   -7.86684205    7.50276758   -7.62385195     -3.81358317  -35.79623271  -25.02661674     17.10123575   15.78900668   16.23005076
    1   -6.59241658    6.83089186   -8.14229581    -38.89607021  -15.95136102  -12.07115231     15.66441526   16.60448744   16.76126824
    8    3.83409635    0.34562080   -9.19995293     53.48943145   30.91022068   60.46847432      4.46819183    4.40917208    4.48586176
    1    3.86950563    1.25581994   -8.74713773    -10.22346947  -41.58278628  -25.65724499     16.82989404   15.55744886   16.20308152
    1    3.12492528    0.41474228   -9.77598675    -45.83054478    8.27293675  -35.76556685     15.37552959   17.59249794   15.78893037
    8   -8.34090719   -5.57507851   -9.48382039     29.04289113    9.08273605   -5.52865364      4.40409735    4.35410309    4.31536454
    1   -7.33915941   -5.57293902   -9.53446804    -25.74884002    1.88980662   -2.81925454     16.20801580   17.32866970   17.14088313
    1   -8.49872601   -6.18007636   -8.73159272     -2.23883258   -5.07957277    1.32416675     17.16663443   17.04188887   17.30880614
    8    6.95634243    1.18450308   -0.98158528     42.72205249   39.24039867   54.02258389      4.44009765    4.43079737    4.46905980
    1    7.19846474    0.38676584   -1.41699287      8.84077448  -30.47108739  -19.96793170     17.61499033   16.01129574   16.43823000
    1    7.76998061    1.37949973   -0.39970503    -52.33363891  -12.22720826  -36.59723036     15.11254427   16.75040970   15.75484316
    8   -3.70491878    9.87017139    0.08760619     63.46851330   41.72070003   48.60820025      4.49386263    4.43715449    4.45541507
    1   -3.62988868   10.82930934    0.44058959     -8.04476087  -42.50166182  -22.34303932     16.92148666   15.51888068   16.33713838
    1   -4.52332191    9.85049094   -0.31947327    -54.50847971    7.26028688  -27.90661534     15.02161327   17.55386437   16.10944704
    8   -3.42659487   10.64964573    8.97023190      5.74018515   -0.88238510   23.92135164      4.34438472    4.32841581    4.39152935
    1   -3.09765515   10.21604336    9.80648884     -3.51329942    8.92056626  -23.22569102     17.11063365   17.61768615   16.30550684
    1   -4.28433757   11.03238391    9.23682794     -1.19445374   -0.30134965   -3.04548653     17.20976188   17.23685463   17.12779621
    8    1.26481333  -10.70234809   -4.76530676     26.05400567   59.46179668   -4.32839316      4.39625793    4.48384744    4.31887244
    1    1.98905168   -9.98518529   -4.84249622    -39.56434267  -33.43671788    1.75235149     15.63853293   15.88351135   17.32581077
    1    1.80082812   10.69304260   -4.68990456      1.64870166  -19.42182216    0.12787843     17.32480920   16.45378645   17.25731096
    8   -5.44797936    3.10685516   -8.42425267     58.98184861   14.36285899   30.83486153      4.48206661    4.36702178    4.40842229
    1   -6.22369427    2.91022436   -8.88559998    -46.70166041   -9.46732642  -12.28553353     15.35082082   16.86708491   16.75776655
    1   -5.69375681    3.17237908   -7.47168010     -8.04487905   -2.81516827  -15.67350757     16.91833354   17.13797870   16.62218956
    8   -5.91579695    3.63996096   -5.69662537     30.60635748   48.95587192  -21.24162101      4.40896236    4.45640060    4.27510939
    1   -6.82461413    3.75003197   -5.39608127    -12.31377612   -4.01572836    6.51301578     16.75425189   17.08715748   17.51835794
    1   -5.61747927    4.59283311   -5.89258873    -11.55153421  -43.64235207   10.59099031     16.77817414   15.46526655   17.69024867
    8  -10.07762862    0.59065637    0.42005578      6.34041669   40.90273713  -15.64133128      4.34542858    4.43635132    4.29010014
    1   -9.14878480    0.38746256    0.21552537      0.64783972   -8.22397223    5.58472842     17.29370513   16.90856637   17.48064584
    1  -10.40271808   -0.18209382    0.86586137     -7.01189514  -28.03587777   10.79085855     16.96622960   16.10237132   17.69189505
    8   -7.56234868    8.50848872    3.25040554     17.94293960    0.87375216   -8.34086190      4.37548330    4.33290573    4.30825790
    1   -6.60369132    8.38229170    3.11390412     -6.22340266    2.36645617   -0.97878450     17.01318925   17.34536098   17.21318021
    1   -7.74387384    7.93115429    3.99588648     -5.30525821   -5.75028672   11.07481236     17.03678890   17.01203774   17.71147870
    8   10.73773009   -8.18689852   -9.24705110      7.91996290   -5.02690764   32.24015384      4.35109898    4.31670787    4.41260444
    1   10.13387649   -7.43199727   -9.15099975     -6.31068923   -0.74864862   -6.46942924     16.98656733   17.22664179   16.99176386
    1   10.83287367   -8.48388298   -8.29987387     -5.85810047    4.29369450  -21.71016789     17.00871788   17.43127176   16.37164941
    8    0.16388661    4.83256866    3.25792264     43.52564732   46.65407520    7.53307413      4.44276231    4.44951560    4.34916618
    1    0.79646677    5.63693342    3.29293113    -26.59262647  -38.64783081   -6.84926621     16.16550701   15.67964872   16.97661083
    1   -0.57418890    5.18218163    3.77942680    -12.87113822   -7.64504388    4.64510673     16.72015689   16.94453334   17.44956433
    8   -9.34752493    3.57708263   -2.40172819     40.77420210   15.31718864   68.77081583      4.43577829    4.36882094    4.50731260
    1   -8.86665233    3.71023709   -1.49402559    -23.58530665  -17.23829068  -52.87302724     16.28643250   16.55177141   15.08875296
    1   -9.89929831    4.39615665   -2.41898652     -5.91516006  -11.70340547  -15.87768107     17.00879596   16.77563668   16.60253728
    8   -2.31720842   -1.04356153    1.98734145     -3.82729375   11.84245244   27.95507991      4.32079180    4.36058646    4.40248981
    1   -1.76108865   -1.79861918    1.76478725      1.30044459    1.45606311  -18.55845081     17.29816709   17.32041692   16.48789671
    1   -2.27627039   -0.44059920    1.20958867      1.31150341  -15.71710791   -6.45263156     17.30498953   16.60041446   16.98952755
    8    1.76802020   -3.04298892    1.54613944     68.18843481   41.08504848  -18.95381268      4.50687853    4.43631603    4.28124117
    1    0.94256871   -3.35485180    1.75861688    -62.36074325  -13.00888862   12.90414632     14.68688874   16.71696442   17.78083611
    1    1.63710782   -2.07451640    1.30017331     -4.81566999  -29.14967124    6.01275194     17.05464999   16.05665059   17.50008245
    8  -10.61244939    1.31309215   -2.16622090     18.55511222   41.28064388   46.49460555      4.37736827    4.43551386    4.44977504
    1  -10.70867196    1.29977734   -1.16649388      0.54586163  -15.55511866  -33.64513961     17.27990132   16.61814476   15.87755772
    1  -10.14562558    2.21257843   -2.25738898    -16.38739375  -32.74961588  -12.39759846     16.58711293   15.92100475   16.74821354
    8   -5.75361561  -10.04405270    9.33708015     84.61715511   31.67984800   51.15895993      4.54917259    4.41071039    4.46230834
    1   -6.51414131  -10.31614333    8.91410786    -67.39824675   -7.47845519  -35.46555261     14.48910463   16.95022043   15.79746480
    1   -5.89201760   -9.08425180    9.53961834     -7.03467926  -21.62909870   -8.20829055     16.96027567   16.38077372   16.91871972
    8   -6.97445140   -5.52209126    8.88357476     61.56885482   50.67332454   28.14869226      4.48903505    4.46017282    4.40245669
    1   -6.82697570   -4.63808492    9.36675404     -5.51546067  -40.55090211  -22.33600791     17.02761075   15.60207165   16.34351423
    1   -7.88689256   -5.59550710    8.85565504    -51.98453295   -4.13155970   -2.67044943     15.12285244   17.08500454   17.14236628
    8    8.33003917   -3.24116433   10.19261297     33.29926055  -10.12331180   12.68026655      4.41576335    4.30400822    4.36303488
    1    8.90361265   -3.80717406   10.78096929    -13.86158131    9.63983641  -17.74343944     16.69049557   17.64795912   16.52202307
    1    8.98709155   -2.90265516    9.54345062    -13.09378173   -6.98176271    2.39586844     16.71950315   16.96351481   17.35015411
    8   -1.91789481   -6.36894171   -4.36220248     33.60245533   16.45364226    7.23072610      4.41534482    4.37269625    4.34828787
    1   -0.95970282   -6.24443641   -4.10028788    -27.84624093   -3.78938746  -15.29892333     16.12890031   17.09647826   16.63264071
    1   -2.21612673   -7.00858913   -3.70083079    -10.56765751   -9.65527345   -4.90497463     16.82231863   16.85664780   17.04632934
    8   -5.12665845    8.92949324   11.06066913     30.77476684   67.75631981   17.16012362      4.40871620    4.50478624    4.37419764
    1   -4.14350368    8.91986177   10.89005449    -28.36340625  -12.13056914    3.24275646     16.09444456   16.75976086   17.38904454
    1   -5.21358834    9.88708337  -10.77472590     -4.71815387  -54.76934857  -13.10297946     17.06651414   15.00605224   16.71859551
    8    2.35052284   -1.12176148   -6.62962916     28.87539729   56.18488881   24.52273273      4.40453283    4.47439003    4.39284822
    1    2.35442100   -0.42021868   -5.87549013    -15.04249239  -42.58868749  -28.87658961     16.63787605   15.51363027   16.07375530
    1    3.00502539   -0.70563444   -7.23147488    -14.52345968  -12.39708337    0.13989002     16.65911355   16.75105594   17.25894287
    8    5.85015339    2.40993848   -3.20809567     66.39364692   -3.24857995   47.15043888      4.50186336    4.32162478    4.45211718
    1    6.69572451    2.57756333   -3.72543203    -32.33406274  -11.87016831    5.12607209     15.92512949   16.76151256   17.46823699
    1    6.23721503    2.13065644   -2.30681096    -27.15147644    8.14681851  -43.03965520     16.14305728   17.58843143   15.48413329
    8   -4.72582168    6.12668923   -6.28251904     10.55754104   -8.00704386    5.66218840      4.35621565    4.30960032    4.34453325
    1   -3.76080070    5.84924821   -6.22410644    -23.67175108    7.39330690   -3.39689179     16.28929015   17.55823378   17.11152662
    1   -4.73902435    6.69975123   -7.07244250      3.85861413    0.53197212   -1.45636197     17.41698885   17.27094280   17.19779978
    8   -4.79303082   -6.98211607    7.73369473     62.33416180   41.88023077   49.32543817      4.49109282    4.43746748    4.45685297
    1   -5.36567120   -6.30870367    8.16613587    -10.46495876  -17.84886762  -16.40175406     16.81713250   16.52449383   16.58190642
    1   -5.33212395   -7.49677987    7.17963627    -49.45770728  -21.88991119  -27.54794040     15.23261520   16.36375452   16.13230143
    8   -5.12305451    6.02118039    3.77046156     31.27548136   48.79323918   24.07488756      4.41000800    4.45516317    4.39180823
    1   -6.02213249    5.78966994    3.95312823    -26.20118934   -5.73975594    4.69907218     16.19002600   17.02357400   17.44405929
    1   -4.97695980    6.83149937    4.36253714     -6.40042578  -36.47025955  -26.19382462     16.99039932   15.76899119   16.18986527
    8  -10.39565814    7.85140112   -1.66794938      3.76482808   49.06111506   23.65666299      4.33924854    4.45583184    4.39141808
    1  -10.38137439    8.79490732   -1.28610666     -8.87557690  -36.59532342  -10.81488247     16.89279346   15.76554214   16.81194830
    1   -9.72763067    7.93341174   -2.35068260      2.03815584   -5.49103223  -11.77745016     17.34017351   17.03230371   16.76384330
    8  -10.70047864    1.13745469   -6.82424804     31.79741317  -24.39723027   29.70806426      4.41204538    4.26693820    4.40720616
    1  -10.98019922    1.62262905   -7.58425902     -1.38525617   16.06807820  -25.93959617     17.19966523   17.91118120   16.18732147
    1   -9.72736986    0.94948560   -6.99531541    -33.28457433    9.40859568   -0.16389252     15.88475075   17.64230417   17.24449570
    8  -10.59220021    3.43135037    4.42427405     79.13584171   48.56644458   32.86474174      4.53442467    4.45570964    4.41485491
    1  -11.09082969    2.68232072    4.63346169    -27.36998217  -47.62398404   11.21574467     16.13320136   15.29735051   17.71249410
    1   -9.85725183    3.43057058    5.13820598    -49.85037140   -3.42090663  -46.99417936     15.20724799   17.10997319   15.32745339
    8   -2.49638509   -4.09789831   -1.76140870     10.04171453   -4.71524317    4.65486585      4.35578263    4.31754321    4.34281949
    1   -2.93519370   -3.28898864   -2.06959002     -2.29293184    1.11998546   -6.12119009     17.15900059   17.30124942   16.99649625
    1   -1.65162247   -4.09539183   -2.25803241     -6.35641195    1.33892281   -3.00438417     16.99634705   17.31095792   17.12233206
    8   -6.95297997    3.60950524    8.62398550     51.56429792   28.44584205   54.60936094      4.46250420    4.40309117    4.47082030
    1   -6.08140390    4.13613784    8.66654992    -40.47374065  -28.82727959   -5.68902403     15.60280161   16.07533170   17.01752283
    1   -7.11355346    3.52918738    7.71799040     -4.28629005   -3.15530252  -44.97649688     17.08083017   17.12388059   15.41747337
    8   -3.81717838    9.92387551   -3.51728539     15.81916664   -8.95157141    9.48294975      4.37005280    4.30733683    4.35431022