 BEGIN_INFO
   #
   # This is a XCRYSDEN-Structure-File
   #
   # aimed for Visualization of geometry
   #
   # Launch as: xcrysden --xsf HICOLM.XSF
   #
   #
 END_INFO
 # estrutura final
CRYSTAL
PRIMVEC
      21.14801509       0.00000000       0.00000000
       0.00000000      21.14801509       0.00000000
       0.00000000       0.00000000      21.14801509
PRIMCOORD
  927    1
    8    2.45874339   12.17867939   12.30388940  -2870.12303478-9000.07588864 2798.29215586      3.94088825    3.92484980    3.95571734
    1    2.53977558   11.36149058   11.82001456   2722.76849591 3056.22094409-4732.54152794     15.84435479   15.85820246   15.53472733
    1    2.03713357   11.92285559   13.11954558    145.67761035 5937.93722802 1934.10102153     15.73731004   15.97788597   15.81161946
    8   16.99286739   11.28184139   14.20903139  -3951.53629316-9055.80361058 -287.36717257      3.93805930    3.92470156    3.94764522
    1   17.43911358   10.44408858   14.29583557   5468.69437215 2983.33530537  678.17045391     15.95840674   15.85519060   15.75944858
    1   16.07784957   11.04419759   14.08753757  -1519.00024830 6063.77733410 -386.45757673     15.66817423   15.98313968   15.71522394
    8   15.66864840   18.05079340   10.13510239   8160.46766489 1860.69547606-5183.14630165      3.96974386    3.95326399    3.93483818
    1   16.48334257   18.43799957   10.44308059  -2397.02138707  487.08926202 5754.87388907     15.63174219   15.75151328   15.97025519
    1   15.82672656   17.88673057    9.20958257  -5765.78112332-2342.90556887 -575.00436413     15.49184806   15.63397806   15.70739734
    8    2.08252439    5.98056639   14.12579239  -6032.23876797-7779.06388032 -261.11510232      3.93261382    3.92804063    3.94771311
    1    2.31486759    5.05622358   14.11549757   6058.04835387 1515.36107154  147.78122487     15.98290357   15.79422920   15.73741420
    1    1.12956457    5.97901359   14.10680357    -20.36373079 6251.55862750  101.89068789     15.73042668   15.99095678   15.73551606
    8    5.76023840   20.30255240   15.10247239  -1344.2853591585851.60248182**************      3.95244598    4.06959547    3.88035146
    1    5.19567155    0.00043354   15.42298261  ****************************41743.38748061     15.13578067   14.89742052   16.73709870
    1    6.24827860   20.70887352   14.39168656  29974.24554964****************************     16.44597129   14.39645723   15.45896981
    8    2.88755639    5.24825439    7.50489440  -6618.81473619  892.43284633 7240.76442842      3.93108384    3.95073251    3.96733941
    1    2.17237558    4.65696257    7.72258456   1664.16200083-3755.20274815-4718.31381907     15.80035285   15.57532739   15.53533699
    1    2.81421658    5.94613558    8.14993857   4957.47050407 2862.68176205-2524.14593298     15.93713560   15.85014977   15.62645207
    8    4.17553840    8.76437739   17.46600440   6233.91877928 -855.73814280 7595.53906975      3.96470467    3.94615860    3.96826608
    1    4.14989956    9.22441958   18.30039457  -5154.82123684 3039.69661525-1825.41978904     15.51722592   15.85749586   15.65547756
    1    4.94414257    8.20488957   17.53469456  -1081.80087156-2191.77979486-5757.30949863     15.68635057   15.64026641   15.49220735
    8    6.60266674   -0.00022761    9.16270550  ******************************************     10.90441379    3.87029670    6.10502049
    1    7.08443057    0.23864056    8.37571957  -2984.26868791-4432.99791596-3247.97053789     15.60739200   15.54721828   15.59639095
    1    6.93139557    0.60063157    9.82558258  -3805.25487120-2584.17550729 4258.68371928     15.57326653   15.62397307   15.90811566
    8   15.63083039   11.69151940   18.57600839  -3398.27234674 5144.98501916-7683.96329721      3.93950815    3.96185835    3.92829080
    1   16.08275058   11.90184457   17.76358358   5063.68719243-3058.36346589 2019.17307393     15.94157443   15.60425546   15.81513504
    1   14.77280857   12.09371157   18.47337259  -1659.83878139-2079.94536968 5664.01245421     15.66232971   15.64489214   15.96651796
    8   11.24150340   20.59220440   19.55813340  **************47890.8683303638325.15693259      4.09083660    4.01069053    3.99582707
    1   11.03706353   19.66126458   19.56558756  **************16576.37295747**************     14.22884131   16.05651888   15.15780748
    1   10.44698055    0.00010853   19.22520557  ****************************-9227.61743364     14.94532030   14.39287305   15.56379630
    8    0.52956733   11.97770000    6.26462991  ******************************************   7260.21102697 3644.89146134 3004.94046213
    1    0.38260256   11.10740058    6.62490257  -5984.14423343 1108.81324966  -45.46174616     15.47813687   15.77817972   15.72960647
    1    1.47653157   12.03363559    6.17549157   -565.96545824 5627.38512717-2232.95013428     15.70735064   15.96947401   15.63671404
    8   16.54777036    7.83422339    0.42511541  ****************************90834.52052027      3.23592698    3.85931268    4.18606203
    1   16.35817259    7.00259657   -0.00026343   6137.51400353-1047.41580930 -667.93191607     15.98619704   15.68777041   15.70352021
    1   15.68742058    8.19179758    0.62619458   2693.07269879 5041.80898082 2536.83907251     15.84312156   15.94071173   15.83662302
    8    2.42188739   15.23424340    4.23109439  -1448.09363936 3141.41180767-9219.18751424      3.94460840    3.95661615    3.92427696
    1    1.71205157   15.77841257    3.90168159  -2465.46104037  269.49338507 5741.82133280     15.62887331   15.74246827   15.96974660
    1    2.95639958   15.06146057    3.46106958   3920.98491594-3404.45290646 3480.36859426     15.89412789   15.58988175   15.87581955
    8   16.85985139    8.79594640   11.58846939  -7257.72901658 5840.20758930-3163.64361343      3.92940979    3.96367692    3.94012032
    1   16.13351658    9.15483257   12.09060458   2124.58843703-2865.79967212 5126.66147406     15.81950446   15.61225550   15.94419279
    1   16.72064558    9.13361757   10.70807457   5132.29681733-2971.25192234-1969.81925358     15.94441931   15.60787877   15.64946226
    8   19.63611940   11.97588540    8.89324639   4834.19065363 8460.48113317-1100.67202953      3.96103244    3.97051512    3.94550501
    1   20.56724858   12.10439956    8.73517457    874.16347171-6175.44626327   59.81652730     15.76755582   15.47486276   15.73373656
    1   19.28270256   12.86065457    8.92112758  -5721.66987316-2299.82796471 1021.92511110     15.49369586   15.63579501   15.77371100
    8    4.19173339    3.42529039   18.19354240   -726.03031474-4800.12774492 8568.30049752      3.94649675    3.93583735    3.97081118
    1    3.73925057    2.60533057   18.37080856  -1742.48996847 -342.62136249-5992.06539875     15.65893468   15.71707020   15.48243898
    1    4.55790458    3.67376958   19.03774457   2458.10710881 5138.56271609-2573.50503871     15.83334654   15.94468282   15.62441562
    8    3.04608040    3.39416439   12.05041239   4087.15377860-8961.64452793  337.10448670      3.95909005    3.92495121    3.94928066
    1    3.77264157    3.10054259   12.59299758    427.60489040 5712.57697555 2521.08756191     15.74903492   15.96852148   15.83596837
    1    2.80744156    2.62107858   11.54654457  -4522.32774269 3248.98292197-2849.75547253     15.54346287   15.86618914   15.61290609
    8    8.54549739   14.90168640   16.42316239  -2859.27508542 9436.74204140  354.72638783      3.94091731    3.97308439    3.94932540
    1    7.65730757   15.24567756   16.45906457  -2265.29820687-5829.36819440  -97.11339755     15.63720577   15.48919751   15.72724024
    1    9.09482358   15.68060457   16.42829657   5112.59285055-3599.05104038 -259.19001581     15.94358238   15.58181164   15.72050893
    8   11.68140039    5.10326439   10.32803940  -4941.68686767  629.57235356 8512.34614315      3.93546912    3.95004451    3.97066605
    1   10.74121457    5.19322457   10.45633056   -854.51981510  -40.59247044-6196.80396006     15.69579083   15.72958808   15.47393711
    1   12.03434259    5.08639757   11.21327757   5789.03318238 -589.45805542-2312.67798408     15.97168207   15.70679414   15.63523631
    8    0.07975140   18.20181140    7.94995739   9278.8642418026312.29706786**************      3.97352068    4.01717192    3.91340319
    1    1.01620357   18.03384556    8.00781258  -1162.68716275-6095.81485853  979.32014820     15.68299765   15.47816906   15.77191984
    1    0.02309556   19.14013457    7.79235757  -6239.99641730 -407.42908367 -130.91002270     15.47214339   15.71433677   15.72586006
    8    8.65992240   -0.01052160   14.76032339   5969.15677290 7827.94137963 -655.77489850      3.96399364    3.96890495    3.94668821
    1    9.60912857   -0.00391744   14.67390657     41.38717619-6241.40307081  -36.64871285     15.73299497   15.47214547   15.72974618
    1    8.42431756    0.91268857   14.78622957  -6034.92481455-1536.20418244  539.69994185     15.48068419   15.66751445   15.75370712
    8    7.26057140    7.23368640    4.46991840   7142.88307522 5015.20731922 4575.75654816      3.96708111    3.96151572    3.96036595
    1    7.31773756    8.17443657    4.61213257  -5455.37229177  786.60872897-2947.67527261     15.50475751   15.76393645   15.60888405
    1    8.05448857    6.89118556    4.87102657  -1677.14155980-5795.57951374-1616.73707435     15.66163650   15.49063109   15.66414856
    8    3.73987239    9.49196940    0.19320440  -2750.6923813716125.07023681 9130.30124292      3.94708010    4.00615763    3.97638864
    1    3.01732658   10.08271658   -0.00030243   4069.47727692 4663.90216056 -766.07443594     15.90041352   15.92482032   15.69933258
    1    3.31566058    8.65365857    0.35374258   5578.65023965-2659.36905277  962.59154310     15.96293073   15.62029465   15.77071910
    8   20.35618140    8.58773540   19.28909540  31475.5186772226391.9349643725733.68657983      3.99046213    3.99048400    3.99733481
    1    0.00069856    8.30958054   19.93386757  -7975.61804088**************-2905.67112333     15.51932386   14.97793048   15.64334694
    1   20.45501055    9.53524658   19.25819755  ************** 2071.29098331**************     15.09107383   15.78014345   15.19085946
    8    3.47541273   -0.00130771   10.25744329  ******************************************     10.11191452   22.24430885  -71.25139375
    1    4.23452557    0.54163257   10.45101259    -38.23283070-2053.81813545 5928.17707621     15.72951017   15.64593987   15.97769940
    1    3.29989656    0.16780657    9.33598757  -4819.96927372-3944.03235875  146.69387266     15.53102842   15.56747501   15.73741320
    8    3.62752739   11.42382740    9.09034439    974.74648482 2818.96885394-9401.35810107      3.95094694    3.95577305    3.92379909
    1    4.40725958   11.75992257    8.65726158   3208.87284238 -535.06757008 5349.14109700     15.86455014   15.70905193   15.95344072
    1    2.96574756   11.42130757    8.40438958  -4190.65588804-2269.20111201 4047.90815778     15.55723877   15.63702784   15.89940080
    8    5.57798205    0.01403040    8.84330129  **************  908.56210460**************     -2.94769508    3.98539605    1.78411595
    1    5.33686855   20.09449658    8.77387757  ************** 5958.16824024 -870.94030216     15.04237688   15.90150437   15.70889662
    1    6.52998557    0.00004860    8.88792558    652.1267466929931.78176205 3052.86450969     15.75251933   16.50196358   15.83463701
    8   19.75971640    4.17234539   14.04882939   4474.41888566-6893.96739037-5261.32531806      3.95986224    3.93049901    3.93445924
    1   20.69581858    4.08527858   13.89187858   1040.45407031 5195.65142750 3330.41234981     15.77446082   15.94706578   15.86965498
    1   19.37964756    3.42372158   13.59760558  -5711.15907346 1808.43138452 1810.14448278     15.49407449   15.80639460   15.80646898
    8    5.40350340   12.42229239   18.16511540   6086.70091999-2013.77201709 7472.76202434      3.96431872    3.94312966    3.96794529
    1    5.90508557   13.03470758   18.69602857  -2325.72111185 4773.50293580-3295.94103182     15.63471187   15.92948495   15.59440789
    1    5.62633357   11.56849557   18.52549456  -3758.54237953-2753.08712730-4175.87319666     15.57520961   15.61695423   15.55787223
    8   11.83083245    2.26615956   -0.00324960  ******************************************      5.05736150    7.19324486    4.19183179
    1   11.11884057    1.63247858    0.00050657  -3745.95696099 4126.29986935 -116.76660039     15.57637024   15.90181172   15.72806287
    1   12.61794358    1.72861658   -0.00225643   4016.95582981 5360.05236320  -62.50698256     15.89805110   15.95386826   15.72883033
    8   18.53936040    5.57450739    0.87161040   2982.80166116  384.58292201 9560.62236154      3.95620446    3.94940065    3.97340709
    1   19.43829558    5.33926057    1.08392556   1101.79143117-1309.62205326-6037.08041095     15.77701503   15.67697569   15.48066802
    1   18.16321256    5.82799358    1.70991557  -5469.45195067 1192.53129871-2806.62185742     15.50414257   15.78078820   15.61474752
    8   15.37698240    0.45409239    0.05041840   6437.89810851************** 8138.59523995      3.96606719    3.89219688    3.96855102
    1   16.24103558    0.05402058    0.00733856   1487.24855795 3720.39623344-4785.04084691     15.79303007   15.88577346   15.53253789
    1   14.94826256   -0.00001542    0.77047457  -5137.83039464 3440.75563695 -854.24376080     15.51786174   15.87411551   15.69591237
    8   13.44447240    2.59579940   16.97328540   3110.97010196 8215.23685384 4518.43267884      3.95653521    3.96988626    3.96021788
    1   14.25589758    3.07473156   16.82934756   1673.01690310-4152.25652793-4375.68829257     15.80074020   15.55886213   15.54958256
    1   13.00076756    3.09337556   17.65449157  -4768.22281449-4059.27198085 -140.10428871     15.53328703   15.56273371   15.72544814
    8   13.96601439    3.68903839    6.09198639  -4352.85689759-2498.39612257-8495.34733217      3.93700783    3.94186029    3.92616800
    1   13.11933757    3.97635458    5.76170358   -825.34652910 3480.29864830 5137.80351663     15.69699133   15.87583207   15.94468168
    1   14.29210958    3.10474257    5.41319658   5189.38956456 -994.67935783 3339.85673389     15.94682155   15.68995377   15.87000183
    8    4.92319740    7.56474139    6.95756739   3697.20675810-6768.22360723-6119.64905438      3.95807105    3.93068900    3.93238523
    1    5.01609657    7.61760459    6.01042757  -2498.20404908 5727.66033417   68.69873335     15.62751480   15.96916277   15.73413093
    1    5.27085257    6.70448058    7.17570159  -1194.57868721 1040.79511267 6049.67245797     15.68165694   15.77449885   15.98254235
    8   14.95316540   11.65947139    0.40369939   5839.60933574-5660.08710401-5530.90879824      3.96367428    3.93358878    3.93392959
    1   15.78845257   11.88908659    0.00611458   -424.10209035 5742.72488425 2416.30267556     15.71366060   15.96977404   15.83161761
    1   14.81407956   10.75378957    0.14123458  -5420.14213182  -81.62664250 3111.78140884     15.50617847   15.72788168   15.86050535
    8   16.71622440    0.23557440    6.04162139  16648.2014098924417.98543507**************      4.01125695    4.04107515    3.87783106
    1   17.54413457    0.00015156    5.63217958   -994.02976373-6013.87444471 1429.95722245     15.68994923   15.48152172   15.79064076
    1   16.66354056    1.18052657    5.92853758  -5516.37088773   63.73178694 2948.18756853     15.50217156   15.73387683   15.85372665
    8   20.21338339    0.70226939    5.55925739   1000.95105238-9702.97003153-1326.38263269      3.95097294    3.92303735    3.94492060
    1   20.13942757    0.20760558    4.74787757  -1205.45619013 5288.53126590-3113.99503440     15.68116154   15.95092420   15.60194044
    1   20.40955857    0.03995958    6.21603458    184.63580604 4432.33980574 4427.89989543     15.73898987   15.91536872   15.91518351
    8    3.40312240    8.71180139    9.68997839   2720.21711852-6609.78898836-6791.40226371      3.95551518    3.93110318    3.93062660
    1    3.94277057    7.93514058    9.80863359    566.61502881 1324.76903328 6082.71045404     15.75480464   15.78629599   15.98392077
    1    3.18978857    8.70463458    8.76103757  -3297.03920623 5269.24283488  709.95873227     15.59433372   15.95012365   15.76076962
    8   20.19488740    5.23883639    0.00020439   1917.69520000**************-2327.47520220      3.95317202    3.91923415    3.94466758
    1   19.46612756    4.62450158   20.99973457  -5300.76155900 6208.01595556  302.55519029     15.54561784   15.94967702   15.73661702
    1   20.96727358    4.68034258    0.00060557   4777.82498136 6601.57224099 1309.06913994     15.89900424   15.96297756   15.75535065
    8    5.31212839   20.99246739    5.62235040   1171.80757757 1992.2053056314142.90407613      3.95096759    3.95087071    3.97854154
    1    4.61171556   20.99744657    6.26880056  -6121.46877087-1566.18195540-6600.05703961     15.52455955   15.70116102   15.50840157
    1    6.10882058    0.00289257    6.14548756   4997.90533015 -425.57587295-7497.79315432     15.89923904   15.72212480   15.47746127
    8   19.96981939   14.68873040    4.66146039  -9410.10819043 2293.82799305-1961.92907594      3.92376667    3.95439847    3.94325558
    1   19.50245358   15.48776858    4.88863758   5165.20551914 2246.74536848 2735.94862677     15.94580324   15.82458708   15.84492667
    1   19.31961458   14.16365456    4.20317957   4225.69976152-4544.71486044 -788.12986993     15.90679221   15.54251439   15.69854633
    8    3.92999340   12.00623340    4.52051239   9077.84169876 3756.37135163  584.51315066      3.97214271    3.95822266    3.94992681
    1    4.76172357   11.54712056    4.44342457  -3049.59851270-5390.71617819 -858.91739038     15.60464794   15.50743613   15.69560717
    1    4.18048456   12.91429958    4.66600257  -6035.41637504 1631.15706832  283.84182643     15.48066773   15.79901357   15.74305672
    8   20.57078840   18.15296939   13.30631539  44707.26781027**************-1513.71613664      4.00645716    3.79729928    3.94697236
    1    0.00002853   19.00378360   13.32563957  **************42905.92835010  150.77968577     14.42323520   16.54641508   15.73347773
    1   19.64124258   18.36372062   13.30152357  18222.4083914980453.87348061 1502.62837610     16.08925349   17.31294571   15.76151900
    8   10.78587939    2.88367439   12.76557540  -9441.83651562  786.80713305 2723.37497759      3.92369333    3.95045583    3.95552223
    1   10.24787758    2.23266257   13.20743157   4845.03730868-3961.67156334   62.30831502     15.93250665   15.56674254   15.73386458
    1   10.20005258    3.62649758   12.64931257   4593.55346007 3184.23889532-2801.02726378     15.92205929   15.86352112   15.61494543
    8   11.94323840    0.58016739    2.40338539   1836.84192983-9229.05034549 -694.05592287      3.95320300    3.92424408    3.94660584
    1   11.19042957   -0.00361042    2.37208457  -3905.94780010 4929.83073023  476.13495130     15.56913264   15.93600987   15.75105752
    1   12.69231158   -0.00602442    2.34203357   3865.06417482 4902.27384350  317.46545984     15.89181686   15.93489452   15.74441710
    8   16.28053540    5.42088439    7.56558840   7730.69806985-5515.42699492 2639.87991743      3.96862223    3.93396837    3.95530326
    1   16.38289756    4.47696257    7.48172757  -5701.18284009 -397.19354436-2553.90458222     15.49451024   15.71477795   15.62521949
    1   17.09841157    5.70714159    7.96261857  -2019.25854714 5920.09902323  -84.32427793     15.64740855   15.97712519   15.72777517
    8    9.44274240   17.60942340    5.76169439   4194.78556884 8880.88975871  456.43659003      3.95936950    3.97162907    3.94959294
    1    9.31788556   18.34877057    5.17324157  -4024.32433887-3370.63831185-3391.14010833     15.56417617   15.59130637   15.59043666
    1   10.06795657   17.93026556    6.40564058   -173.75586862-5514.62632105 2931.67596564     15.72407139   15.50227796   15.85299549
    8    7.79230239   17.85764739    7.94687039  -8691.43631593-1832.33436078-4251.17796290      3.92565571    3.94360425    3.93727298
    1    7.35796458   17.01648957    7.83595358   4766.56403179-2846.73065133 2873.72639861     15.92925731   15.61302662   15.85063796
    1    7.19205958   18.48146258    7.54804858   3921.66523261 4673.46308482 1393.53971840     15.89415198   15.92537674   15.78916812
    8    3.56777240   14.61204339   14.38539239   9169.91020255-3179.83506716-1538.00928085      3.97238707    3.94007880    3.94437356
    1    4.38261357   15.09346358   14.49840858  -3222.77897686 5032.48516539 1831.52904648     15.59743723   15.94026306   15.80733385
    1    3.84795356   13.75150857   14.08627557  -5955.91648330-1856.14387237 -287.98071617     15.48393667   15.65419225   15.71931855
    8    5.11517439    0.09768540   16.33623640   1966.80978629 5215.5088193914154.16132628      3.95004369    3.96566610    3.99211107
    1    6.04668158    0.00012157   16.51309756   1053.85801147-1056.18947658-6070.59143040     15.77501266   15.68743616   15.47911535
    1    4.73544956    0.27626557   17.19204957  -5715.85073009  367.69054698-2573.31271254     15.49397144   15.74653394   15.62439924
    8    2.37030840    5.77977539    4.63560339   9184.97167150-3592.85505312  -99.81225581      3.97244483    3.93900098    3.94814086
    1    2.64694956    4.87865057    4.77682257  -5966.44953951-1713.42339237  808.50920635     15.48349289   15.66012419   15.76485451
    1    3.18514457    6.24968258    4.48156657  -3202.22530195 5319.14060955 -701.67595990     15.59828745   15.95215785   15.70214048
    8   14.72760939   20.09649739   17.83507139  14717.54419923-8607.23000506-4728.14573345      3.95882761    3.94235791    3.94509741
    1   13.86536657   19.69641457   17.90556557  -4613.7018647910493.04802992 3276.74213827     15.67917067   15.84892191   15.76809919
    1   14.58518657    0.00001557   18.10315557  **************-1890.32563389 1464.38734340     15.61819436   15.70914364   15.74733780
    8    4.38298340   18.42873540   13.01158239   4324.85250102 8812.17645714  768.38615146      3.95971224    3.97144838    3.95040632
    1    3.98813456   19.25371857   13.27991057  -5508.47976308-2872.18585662  758.15729582     15.50250929   15.61200222   15.76276863
    1    5.29156458   18.65512456   12.83346457   1183.12243310-5947.22710582-1531.65388568     15.78039839   15.48431271   15.66767748
    8   12.51497239   12.19964640   14.52591439  -1134.51188161 9696.54916599-1250.12215592      3.94542927    3.97376328    3.94512672
    1   11.73839157   12.66510956   14.22798057  -3069.82241748-5425.87365012 -508.40548338     15.60379760   15.50595793   15.71016446
    1   13.15591058   12.88995356   14.67142458   4206.88166563-4269.73285119 1769.46401907     15.90596986   15.55396696   15.80475502
    8   18.24207639   14.01740140   18.56477740  -3886.24203772 8139.67014832 3944.34866679      3.93823247    3.96968920    3.95871527
    1   18.67971858   14.84097957   18.76148057   5381.06854615-2332.99852305-2166.02689275     15.95471822   15.63440498   15.64133177
    1   17.34065857   14.16443256   18.83740157  -1492.06505478-5808.21070595-1772.61016839     15.66930130   15.49009666   15.65767254
    8    3.81326039   15.04335540   11.65947140  -7557.33998058 5951.15961538 2218.00383409      3.92862606    3.96396671    3.95419901
    1    2.88190658   14.84148456   11.64138857   1297.24371217-5828.38498768-1882.88994551     15.78514691   15.48922668   15.65309253
    1    3.84658059   15.95303557   11.94208557   6247.97682572 -117.74374875 -339.57908612     15.99074715   15.72638442   15.71718096
    8    7.93438839   -0.00029360    0.68882239    334.10679752 5635.25287441-8299.07052066      3.94975999    3.96383321    3.92683421
    1    8.59116658    0.61927057    0.38339458   3360.39191784 -995.75995307 5175.00765489     15.87084398   15.68999702   15.94617766
    1    7.27832557   -0.00041544   -0.00260642  -3399.93365152-4169.33593838 3190.58318651     15.58995622   15.55817064   15.86364949
    8    7.56286340   10.85948139   -0.00719260   3270.93319932************** 4898.91463570      3.95696241    3.88748252    3.96122731
    1    8.41817858   10.44811758    0.08066357   2540.13620182 4477.18431428-3537.99075595     15.83678178   15.91722315   15.58435455
    1    6.98272956   10.29502858    0.49612657  -4836.33829671 3698.77412880-1406.52784625     15.53041844   15.88490508   15.67287128
    8    0.00706340    7.76360740    0.48220839   7200.86086201 3808.42020791-5550.95982241      3.96724666    3.95835353    3.93391290
    1   -0.00059544    8.58525258   -0.00084642  -5821.45706615 1140.57283947 2025.21111269     15.48951105   15.77863413   15.81546101
    1    0.86921257    7.39880156    0.30300758  -1364.08913272-4962.99581299 3567.01012201     15.67461243   15.52515347   15.87938965
    8   13.50184040    5.59327539    8.02027340   5315.18697802  390.82356026 8272.19125603      3.96230099    3.94941974    3.97003532
    1   13.78244057    4.86691456    8.56996957  -2853.99855696-4030.22745537-3846.43607481     15.61276641   15.56392613   15.57156152
    1   13.85576157    6.36304758    8.45695556  -2475.12079372 3649.00851416-4427.38566311     15.62849791   15.88279468   15.54743689
    8    7.85421539   -0.00991760    3.43741139   -927.61524184 9836.73072590 -461.96981917      3.94601312    3.97420073    3.94715103
    1    8.53785058    0.63873356    3.29458557   4262.92285347-4552.20463965 -363.06578321     15.90823574   15.54228255   15.71625473
    1    7.05932257    0.50853056    3.52602457  -3331.88688634-5231.77703402  820.36990782     15.59290327   15.51403579   15.76537473
    8   15.05489939   12.22781939    6.61215139   -800.42527472-9772.93336274 -884.10781984      3.94630210    3.92282580    3.94608392
    1   15.37247558   11.67654358    5.90240557   2263.49274524 5045.52882059-2926.59613840     15.82529582   15.94084372   15.60971895
    1   14.64505857   11.61395958    7.21522958  -1470.77257958 4721.12034299 3818.63991727     15.67019176   15.92736923   15.88988152
    8    0.00049339   16.91985239    8.81182540  ******************************************      3.78323645    3.84339627    4.12686533
    1   20.84054763   16.04652254    9.15854252  80310.13942554****************************     17.46352134   14.67695412   14.35860830
    1   20.42298660   17.48013064    9.32277654  39118.5399172588190.67627392**************     16.57779169   17.67581307   14.71049374
    8   11.77010140   20.47461140    7.33871039   4304.17216529 8663.64450800   95.05433021      3.95961739    3.97103763    3.94884159
    1   11.97352257   20.99979056    6.56974457  -2458.14968658-4412.94266474-3722.79126424     15.62920722   15.54784429   15.57668782
    1   12.08913857   20.99960456    8.06747358  -1866.61912902-4407.47455094 4007.52100509     15.65380951   15.54823146   15.89769443
    8    8.69778662    4.17823051   -0.00051656  ******************************************      8.17602222    6.05247261    4.87769160
    1    7.92699257    4.73888358    0.00622456    595.85304534 1360.36795081-6093.64817745     15.75598746   15.78761192   15.47842822
    1    8.75868858    3.85917657    0.89558157   5108.60064716-3281.96846851-1499.86523579     15.94330918   15.59501657   15.66896539
    8    7.58086337   20.44011634   19.39652539  ****************************-9310.52662284      3.62227156    2.99092382    3.89422183
    1    8.07043158   19.62264758   19.42035358   5276.13302059 3181.85602018 1021.30455007     15.95040819   15.86342581   15.77369656
    1    6.68178157   20.16592459   19.23852357  -1850.65896076 5979.35607686   93.04270596     15.65439084   15.97970337   15.73513946
    8    0.77465639    0.01429438   14.65454839  -5541.01236345****************************      3.93946207    3.64238720    3.91592363
    1    0.00565850   20.45175366   14.62830559  ****************************16259.54717854     13.59572537   18.21689222   16.12613373
    1    1.50453865   20.41273466   14.53667658  **************99872.66565014 3970.40900548     18.01007453   18.10125338   15.85507052
    8    3.95304840   14.95243439    7.07365140   8016.89896223-2944.22224343 4887.73190466      3.96936811    3.94069521    3.96118359
    1    4.29457256   14.06677857    7.16011657  -4712.44902065-2162.64939515-3488.77054448     15.53559626   15.64147316   15.58640154
    1    4.56829957   15.48617458    7.56871357  -3306.03969712 5108.82848019-1387.40303281     15.59399612   15.94342063   15.67366126
    8    0.09039839   15.67857739   20.54084139  -9653.68988783 9145.10733533-3729.59495021      3.94339779    3.95303721    3.94628911
    1    1.00510957   15.69188257   20.27320557   1530.69427664-7500.88373290 4861.11253164     15.74450716   15.67034313   15.77357389
    1   -0.00262243   14.85013657    0.00293057   8122.88241670-1650.56258156-1127.95630203     15.79739036   15.71829440   15.72259978
    8   12.83384440    9.95060539   12.97678640   1266.75904578-2900.44647845 9346.33195061      3.95171122    3.94080958    3.97284685
    1   12.17264656    9.63731857   13.58766156  -4401.16404399  728.90860026-4392.61422346     15.54851129   15.76154508   15.54886785
    1   13.64397058    9.91971158   13.47802556   3138.20524311 2175.57073292-4953.35261886     15.86158930   15.82161967   15.52558413
    8    6.89827740   19.37740239    0.64740539   9200.49604047  -66.99768815-3971.55321488      3.97246094    3.94794896    3.93818208
    1    7.62809557   19.97807658    0.77012458  -3336.76511049 3271.17112203 4204.20560324     15.59288134   15.86743157   15.90595293
    1    7.21736456   18.75638457   -0.00144943  -5450.14059252-3017.83008952  238.45414078     15.50493108   15.60594522   15.74128404
    8   10.04444239    0.54139939   10.94907339  -3198.21458982-8900.53217342-2780.96783813      3.94002429    3.92512165    3.94111607