 BEGIN_INFO
   #
   # This is a XCRYSDEN-Structure-File
   #
   # aimed for Visualization of geometry
   #
   # Launch as: xcrysden --xsf HICOLM.XSF
   #
   #
 END_INFO
 # estrutura final
CRYSTAL
PRIMVEC
      20.78544876       0.00000000       0.00000000
       0.00000000      20.78544876       0.00000000
       0.00000000       0.00000000      20.78544876
PRIMCOORD
  927    1
    8    4.61544589    2.72120227    2.10376179     11.08377715  -16.25112414    6.67478509      1.40462185    2.20971820    4.88425894
    1    5.11517085    2.67661815    2.94488562     -3.39348001   -0.02204641   -3.91332435      3.13017793   -6.71322752   14.93787398
    1    4.43964860    3.66057221    2.08243613     -7.76292037   20.29295703    0.22160375     16.22582550  -27.24858465  -10.59878582
    8    9.31959412    7.81888565    0.89782950     26.87051436   28.41836159  -29.77367835      1.55601326    6.63165578   -0.45628343
    1    8.86264773    7.32795115    1.53505547    -15.43137008  -24.90251513   24.26411570      3.63163570  -16.85788898   13.90661402
    1   10.26506460    7.54182636    1.01209476    -12.76805152   -5.70317889    8.22954320     30.31779390    5.66882729  -15.72133402
    8   10.23658352   10.12413726    7.16293561     25.80118501    2.83539369  -36.55991825      5.37893821    2.25185820   -2.95806726
    1   10.33900127  -10.05417832    6.37148928     -0.76224645  -12.20645032   13.48538361     -2.30403985    4.01948215   15.61729602
    1    9.50193366  -10.22886319    7.55821725    -31.87202752   12.30543425   21.05394059      5.95924543    7.62151894  -21.79625816
    8   -1.43797875    6.50621966   -9.34836752     -4.66502825   -4.52695322  -44.88134851      1.27684644   -3.22578516    3.29959932
    1   -1.91607410    6.94250265   -8.63421996     -6.38567331    1.55694410   20.17157233     16.94096053   20.96185176  -18.46507301
    1   -0.67817213    6.14761159   -8.91204499     17.58274774  -10.12967052   22.06260381    -22.54846002   -1.42683438  -13.53351744
    8   -9.56659170   -9.09116991  -10.24576972    -20.33844666   20.65242254   -8.04422472     -0.47758200    1.46253746    1.75228152
    1   -9.19309311   -8.43126531    9.84177820    -23.18917285  -21.76614601   34.22471147     -2.96336288   11.03542682  -12.76618396
    1   10.25440463   -8.78631419   -9.97435938     53.06164646   -4.10780586  -27.14389258    -17.58662370  -26.95040158  -10.11458855
    8    4.65774363   -1.75799186    7.17670150     12.64164380  -10.12551146    7.58087431     -0.33356080    2.20818388   -2.22437343
    1    5.31310943   -1.03742808    7.17139448      1.72769854    9.57948519   -3.28121245    -24.75176383  -49.27209237  -16.95171070
    1    5.30142448   -2.47373753    6.96957266    -12.96412592    0.40460946   -7.14424650    -11.35484347   25.16518584   24.53047964
    8    3.47834442    9.77941712    7.09869795     20.61215665  -40.35409830  -24.61952499     -0.54551451   -4.64797190   -2.63218645
    1    2.63639872    9.87311384    6.66516916    -16.46246193    7.44053766   -7.74137111     -6.35525029   12.21764403   -0.87531243
    1    3.42944644  -10.32694129    7.73451365     -6.40773310   28.16030821   30.88839285      2.83698599   20.83328658   32.80606031
    8    3.23408109    7.57299717   -5.49560782     36.32201053   44.95672465  -32.14571190      1.78661404   -4.51034223    1.95161067
    1    3.45895227    8.57413039   -5.29197788     -5.97848918  -56.24191485  -12.51092835     -2.01605527  -14.68246632    5.12944955
    1    3.85217828    7.37856655   -6.31155264    -27.27050820   16.54649664   43.73885973    -18.51778560   12.44963360   12.44892359
    8   -2.75977082   -5.96890406    9.53703376    -15.06805236   -1.78458646   -9.36098458      6.10375840   -0.46020389    3.51106539
    1   -2.70998309   -5.13986058   10.04299258     -0.31518391    8.69459012   -0.42722390     -0.37784807   14.13790031   14.07794038
    1   -2.01858062   -6.42544503    9.96195755      9.55128856  -10.16345448   -1.45214515     30.45060610  -17.73617463  -12.99899412
    8   -2.32974151    1.81235412   -7.48166432    -13.76697180    4.17558774  -33.09476081     -2.28370669    3.31429882   -3.59388009
    1   -2.61737884    2.55646119   -6.96231764     -0.52248275   13.88392428   20.18085501     14.34616212   33.68709000  -10.27457575
    1   -2.82091892    2.07845075   -8.30918455     11.89702866  -13.58162559   10.56091307     14.15021849   -1.79314773   18.06690344
    8    1.53562166    5.34110988    4.39190451     -3.49546971  -24.80996632   19.76186589     -1.69808981    0.40746210   -0.37438286
    1    1.49669452    5.86077550    3.60814504      8.40441577   29.21732092  -28.74238126      1.27704777  -12.57423665   -8.05250398
    1    0.93041465    4.66611585    4.05906506     -2.19535830  -12.04615996    2.65310766     21.16010641   17.52631131   -8.70559537
    8    6.92697814   -6.13597926   -5.11881345    -58.67253153    9.02539458   53.52251100     -1.62786892    0.91091039    6.82283950
    1    7.63274891   -6.29109799   -5.63961996     57.45276416  -14.32364137  -42.90828013      6.26657324   -3.42642201  -19.17008752
    1    6.80993966   -6.99729858   -4.63847232      3.28288379    3.16243694  -14.45312210     23.71004930   23.99582647  -10.20122865
    8   -8.59868217    8.75192719    3.60812739      9.66268287   29.80070370    2.11504068     -2.74851300    2.80794756    1.51865145
    1   -8.90105177    8.14678673    2.94380314     -2.06067493  -20.81659188  -18.46938391    -16.50790842  -30.46982128  -10.00278314
    1   -9.05450549    8.40490926    4.37926848     -7.34120945   -7.61280587   17.29141111    -34.46413648  -16.80477988   21.24977951
    8   -1.62414076   -7.73207966    2.52462037     60.23769135  -22.74681955   13.58564339     -1.17081354    1.24146261   -3.80349302
    1   -2.20966492   -8.42637371    2.25718385    -16.43131953  -23.58786716   -9.70257510     14.42789048  -11.54933673    9.69244609
    1   -2.22448138   -7.02562134    2.49784249    -35.12626015   33.02332290   -0.66658009      9.14157855   -7.09632863   -6.00559695
    8   -1.75905669    3.87812963    6.81343750     42.74521678   19.57213505   51.98942923      3.50791196   -2.39251175   -6.68379125
    1   -1.38925189    4.42884852    7.62554631    -23.99930852  -25.53094314  -43.43543382     12.94314597  -12.16035717   -7.93531530
    1   -0.98365668    3.24868574    6.76127230    -12.73391541   10.97388682   -8.27581625     -8.23872073   30.28237559   20.00521680
    8    2.78435087    0.72470284    1.51676393      3.92910507    8.21100339    1.84850554     -1.80491075   -1.25099394   -2.22248873
    1    3.40585153    1.48107354    1.65671788     -4.32203177   -6.82748994    3.87678650      7.84445312   31.35715128   21.05470726
    1    2.71891484    0.76805374    0.53520833     -6.44546108    0.59522782    3.22307777      2.90383698   -8.58455775  -19.97767960
    8    2.53774694    2.37140108   -7.62447279    103.93183117   -7.35785563  -55.18319332      4.36275704   -1.92142056   -2.86239185
    1    1.78099803    1.90370824   -7.69043346    -69.58510510  -32.02809120   10.77782394     14.92100785   36.14601093  -18.15118036
    1    2.37002676    3.09002221   -7.09729697    -27.47691372   39.46422199   39.11294867    -36.48688291   44.63929265   17.20701070
    8    6.39202220    0.07307080   -7.93879755      1.60213897    9.14004164   -7.01104215     -4.09495293   -7.33757035    1.90766734
    1    6.78965803   -0.67592168   -8.42951970      3.90132775   -1.14532467    3.16094209     -2.67619892   35.49255803   16.35296206
    1    5.69617491   -0.39061643   -7.47527078     -6.56232766   -9.93870469    9.92044279     -6.36024611   54.27191878   20.47544156
    8   -0.58476302   -7.15492888  -10.27001689     10.65433259  -16.37101462   -6.05342038      1.11749203   -2.09908703    0.83813248
    1    0.25456261   -6.70566044  -10.08041177      7.59184951    0.91068341    4.42933433     17.32426452   13.43127079    8.81770849
    1   -0.22470351   -8.07810985   10.36300947    -14.18225119   12.96807806   -0.78683602    -19.55601352    7.71877170   -7.63571209
    8   -3.82145614    0.16390158   -2.28456062      4.01382605  -52.89319239  -42.81352996     -1.93731127    0.15467004   -3.75825631
    1   -3.91794513   -0.59303109   -2.98516613     -3.56851704   41.75864818   30.94703035    -11.03816413   10.90940352   16.53565609
    1   -3.00013468   -0.17630980   -1.88776350      3.89133297    8.08717370    8.48573376     51.58479024  -29.64755766   30.84115702
    8    6.93836257   -9.88430952   -6.58628688     53.24658756   -3.51015666  -32.07373552      0.03168769    1.37796174    3.94195678
    1    6.53174765   -9.62698336   -5.79678158    -28.10109630   13.29622087   37.49087088      0.16470668   -9.28507487   -3.54330399
    1    7.83594078   -9.47568038   -6.36158773    -21.85643377   -6.94351171  -12.29924373    -11.40969660   -9.18798344  -21.32779444
    8    1.67099574    4.08827090   -5.67921423     24.82288369    5.55273325  -61.22110109      3.85920092   -0.48751921    3.63004522
    1    0.95680700    4.12326791   -5.12156929    -49.41678922    5.02464567   37.32321036     -5.13116668   20.04683128   12.69745700
    1    2.36163614    3.82222305   -5.11463781     26.17947074   -6.56397971   26.15051887     12.76398706   -4.39652478  -17.66979813
    8    6.49923936   -0.66377400    2.75711674      9.67245884    9.83658807   15.20452861      4.93251444   -1.02659542   -7.98811609
    1    7.00736190   -0.08957642    2.11947436    -18.14865451  -14.28021078   -3.92883448    -17.60094751    9.11243393   -5.90650591
    1    5.61445512   -0.79236573    2.34520651      5.50028430    1.47963515   -2.93276367    -22.97517512   13.34838810    6.32703028
    8   -5.37261239    2.19350270    5.28744414      0.36161933   39.85421122  -53.63775184      0.52220523   -3.15818373    0.67730130
    1   -4.81263472    1.96686049    5.96900547     22.44520357  -26.87673715   47.13155315      4.07061451  -13.32743629   20.37864301
    1   -4.68689166    2.81857465    4.88765186    -26.77508363  -19.63957345    0.25787346     23.23466058   14.10280314  -29.89885498
    8    2.63447340   -5.56197464   -3.19726849    -35.24024403  -31.07188450   38.03929344      4.10026974    1.03377971    5.44613657
    1    2.16134907   -5.15879920   -3.92584985    -11.64300414    9.14772492  -15.22553048     -0.26502939  -10.15362052  -22.08058158
    1    1.84828470   -5.99793152   -2.67690268     33.72859674   26.76005012  -27.93560635     -2.27195113    1.46084307   -2.21018783
    8   -4.04929955    2.72321897   -9.65371986     -3.16842741  -59.08029677  -66.39844722      2.59578716    0.14906112    0.43064960
    1   -4.23365301    1.92292850  -10.34819915     12.11692025   60.22185201   56.57384724      8.30634982    5.77873133   -4.24815994
    1   -3.94881588    3.49077198  -10.27661933      1.37051085  -10.22720768    5.72770699     -8.39832093  -29.44568652   26.89017945
    8   -0.92676784    7.40281020    3.79905714      5.61074291   15.95460370  -13.08987099     -6.70535197   -6.15524292   -1.61430137
    1   -0.72715339    8.12504578    3.15818861     -1.09894481  -11.92245108   16.80715746    -11.00079395   29.28677284  -30.79092135
    1   -0.45230723    7.64030487    4.61463728     -0.52538984   -0.16720572   -3.33858994      4.33980193   28.29646070   62.61012988
    8   -9.12093098   -5.30958581   -1.83822851    -20.44323159   -3.24344366   30.56115785      4.56637225    3.27426433   -0.86908768
    1   -9.26522420   -4.69367337   -1.04673448      4.45652120  -11.56615072  -24.19855850      9.09152074   -7.40117671   -2.19433051
    1   -9.72094982   -6.06979923   -1.54461797     16.85566897   16.40136817   -6.82360662     -8.59964975   16.31588530   -2.41094972
    8    2.73035806    5.73355052   -9.71806502     -5.00183364   43.39126000  -78.46645759      3.58288176   -1.39398451    1.17535838
    1    3.51603323    5.45342396   -9.32426474     42.25555181  -16.78692973   25.13814967     14.64195145  -19.34586165   14.47344405
    1    2.07732549    5.44402918   -9.16655786    -43.72720029  -22.36788256   47.51453059    -34.07097622   -9.23150276   17.17101142
    8   -1.71746897    8.76103662   10.00548265     22.46154071   29.37532934  -37.55534115      0.00246343    2.42546098   -2.96078598
    1   -2.63841377    8.83587765   10.18600235    -27.28490777    8.95659176    8.36119511      2.42262893   -8.45962917   -2.66766147
    1   -1.58502616    7.91670952   10.37693407     11.76532423  -35.39909514   19.03773560     -1.42914445  -15.75255269    9.85402279
    8   -3.63006993   -1.77473141   -4.20774663     -2.50483405   -1.04871305   21.22582134      1.20314537    0.54941953    2.84332121
    1   -2.71622330   -1.95742371   -3.83592785     -8.67290992   14.36940801  -30.76206784     -4.89578098   -9.01692785    0.82665128
    1   -3.57386051   -1.26761907   -5.05435833     18.12593870   -7.70178396    3.34198676      4.19044542    3.26014264   -3.29336189
    8   -8.83548796    2.74092717   -8.42210591     -4.00809575   17.00070856   48.35364355     -0.66504258    0.41958211   -0.92766614
    1   -7.94964719    3.18386960   -8.42009939     -2.24954506   -6.67885347   -2.63333472    -10.66784230   13.97661877   -4.84156382
    1   -9.14223033    3.04553946   -7.47367962     10.84552456  -10.09807965  -48.89619766     23.59805077   13.73940787  -25.06598080
    8   -2.92406648    5.79703952    3.15831668    -20.06985085  -14.73098049   -2.71884074     -6.23162091   -6.73887532   -0.00435732
    1   -2.22471699    6.26495649    3.60833557     14.91860115   17.31030585   13.86241435     58.38826751   37.09551018   37.13967387
    1   -2.47998504    5.67707919    2.30773763      0.34111486   -5.90575140   -8.21887914     16.59233470  -10.43368427  -10.60597335
    8   -4.87467181    5.72572707   -7.09080183     -7.79697193  -48.80998872  -33.16849787      1.01568304    1.13013665    1.73505969
    1   -4.10549951    6.18989991   -7.42168101      9.67579966   18.01499883    2.83811943     14.36330224   14.55455654  -23.63789321
    1   -5.29258198    6.29618994   -6.47992282    -12.14800932   34.79524264   21.72329111     14.95846351   15.35508541   36.04062116
    8   -0.85887236    9.01716793    7.23141838    -19.28124467    6.03484896   71.88387454      2.05587524    4.93757599   -2.15102017
    1   -0.93912102    8.77812489    8.25395725      1.81589878   14.65912250  -69.36635361    -11.08266458   -7.56154780   11.12767065
    1   -0.39736846    8.26011045    6.86126063      9.03173674  -20.45304951   -1.02062454     -1.74491913   11.31689532    6.81353338
    8   -9.08910106    6.76746586    1.77995399     23.08669927    0.10688130  -12.10069548     -2.12724216    0.80650229    0.86459387
    1   -8.21705735    6.71347928    1.28421379    -19.41895641    2.80013527    7.25839431     10.14120938   14.21341208    3.93014400
    1   -9.03066964    5.94567999    2.28027605     -1.86489658   -6.24383234    3.25369009     -0.58856064   29.47420436  -17.66571328
    8   -4.07773638    9.03568343   -9.43302058      8.82970723  -38.29013815  -29.87414172     -0.11333713    3.16360043   -1.37452945
    1   -4.31888888    9.89533339   -9.72390152    -16.28082249   31.52023729   -3.53558374     19.20296029  -13.54187755   32.02504183
    1   -3.83990712    9.18008331   -8.54182051      3.84679662   11.21119553   35.21187780     -0.80811795   -8.61164523   19.06007265
    8   -8.90572445    9.35458919    9.14918782     -2.35834121   30.53250797   45.08545043     -5.26237187    0.47794343    0.19383805
    1   -9.51380358    9.39910884    8.40255040    -10.17107594    8.57527136   -5.24301633     31.22175673    3.09016056    7.63928184
    1   -9.25155542   10.10568452    9.77602642     15.45056427  -35.19596181  -36.58936104      3.45117561  -16.59934959   -1.95782549
    8    0.45757586   -1.16001133    4.63990270     -1.39745846  -48.15267409   24.57679593     -1.67018993    4.10075152    0.50528289
    1    0.57138757   -0.31660010    4.34133340     -5.13392180   56.37208675  -35.40351278     -4.13498440   19.85155655   11.69511760
    1    1.12935964   -1.05900780    5.31975606      9.03219345  -10.51992579   12.92979434     -1.33555218   11.06813641   24.52495944
    8   -4.37082330   -9.22761898    6.92884795     18.96228413  -86.26546623  -17.32819119      3.88632006   -0.42005069   -2.48420416
    1   -5.25579322   -9.69288575    7.11633012     24.79780809   14.03535603   -8.88245603      3.70796105    7.58459283   -5.50154921
    1   -3.79172120  -10.08194249    6.64721096    -46.72281173   65.47093124   18.43432442     -6.28463464   12.45035473    2.98029171
    8    0.48834500   -3.80109352   -8.64887933    -39.05998715   36.10006584  -33.50836234     -0.69713164   -0.26353505   -1.35118101
    1    0.73319379   -2.90058692   -8.37406784     -9.29704747   10.42260834   -0.33299864      1.28033042  -20.39529476   15.79004975
    1    1.15781273   -4.19811612   -8.22392010     45.67297684  -46.11981833   30.05006605      6.79829426   12.82512183   -8.08888377
    8    2.24422254   -4.80386985    5.80204078      3.23888573   -5.02250474   -5.10460836     -2.83184702    0.59432403    0.97948400
    1    2.54384608   -4.96712562    6.69900514     15.38777735   -7.39209017   11.78398238    -19.78516267    5.11037604  -16.30604382
    1    1.44583730   -4.36953761    6.06860466    -20.74955057   11.40017128   -4.83069974    -33.76800067   17.57154597   43.41225727
    8    5.04017841    1.65529910    8.65551813    -92.81714953   80.86749792   30.43198683      2.64662119    1.37874170   -0.76413525
    1    5.50880176    1.00680158    8.34817249     65.36233768  -73.04474119  -36.30553154    -23.56204935  -11.53308097  -10.41212355
    1    5.65824349    2.24726072    9.08555411     18.44783668   -3.45562726    8.20279652     -7.29393813   -5.07519225    2.19838452
    8    8.90489019    1.46887948   -3.87631473      3.77274225    6.42642996  -15.56914212     -0.72856494   -3.86938902    1.09005772
    1    8.53073351    1.71269973   -4.75145813      6.30762372   -3.22220262   -1.36092109     17.04623994  -24.74649631   24.49999522
    1    8.23747110    0.80642104   -3.63748155     -7.79057733   -7.03254347   10.07812384     24.20483250   10.86363353   -0.02097271
    8   -9.90557471    7.89672914    5.83071457      5.84156888   16.83169040   35.28317727      0.23088703    2.23713685   -0.34288325
    1  -10.13906452    8.72495029    6.36788807      4.17211685  -20.81863902  -19.06109253    -26.57695621  -12.82234889  -13.92490185
    1   -9.48977636    7.37468321    6.56070797     -4.32044831   -2.33637527  -11.07596367      0.84420185   -4.51985399   23.25173861
    8   -8.82879053   -2.50939640   -9.56966271     36.18484746   -0.73645104  -35.62045764      0.55556632   -3.91629289   -2.42539142
    1   -8.06304883   -2.48710351  -10.24176061    -20.59726989   -5.98368774   33.83899765    -17.25091852    9.04600396   22.60530222
    1   -8.80041213   -1.56652588   -9.27322063     -1.87541494   -6.24792977    5.71220035      8.21439924  -13.86241557   -7.14475154
    8   -7.77391012    4.91264274   -3.84985590    -28.35660666  -73.83049318    7.70475330     -1.70406521   -1.22754429    1.68152179
    1   -8.19254955    5.48088396   -4.48138482      6.49073866   30.17349023  -13.51786559     -7.16982509   -2.69604250    1.11316287
    1   -6.96750736    5.26092281   -3.50469274     20.03992157   36.79215211    0.23234986     22.72471302   23.57059901   14.42246036
    8    6.13989981   -8.59167324   -4.36201247    -17.48275065  -30.63199559   33.06374152      0.24938810   -0.21076586   -4.28228719
    1    5.19937166   -8.30973139   -4.13551970     25.97506491  -12.36148099    3.18532348    -36.83199409  -28.86961624   -7.85825143
    1    6.27904255   -9.38845062   -3.72429052    -11.42246702   39.32364840  -23.54214753    -26.37854247  -12.23857202   21.84427601
    8    3.56525715   -2.27510509   -9.08642456    -34.41107246   11.71688437   10.08455508      2.93886064   -0.08878564    3.43587305
    1    2.63617593   -1.93828617   -8.89856979     22.46474934   -8.14731697   -9.21760465     17.90391157  -17.17104372  -16.84925400
    1    3.92076339   -2.00070175   -8.23315836     13.95943577   -2.82304385    7.76367236    -26.00956693  -16.02325062  -26.61516519
    8    9.81743233   -4.48586888    6.09103253    -27.51767391   -8.11899601   -9.94632193     -0.25003178    3.66602757   -0.09332092
    1    9.38624917   -5.23528388    6.60537499     16.30437702   16.72759683   -8.04715038     -3.90748983  -29.27443848   25.20491470
    1  -10.29998027   -4.13005914    6.67540795     14.56187631   -7.49584131   16.63674573    -18.14560122   -0.41431942  -20.85683807
    8   -1.04525981   -1.22348193   -3.59496387      4.74230367    7.39143194   17.34226211      7.20989168   -1.97612397   -0.25224154
    1   -1.19651363   -0.26065009   -3.81619599      7.93941492  -19.63457832   18.52164363      8.32326594   -3.96010759    8.19850607
    1   -0.93679514   -1.30073419   -2.57548763     -8.56704328   19.75877808  -39.00164650     -3.25113417   16.58947284   14.91640641
    8    0.13079442   -6.27650182   -2.05931668    -48.54405786   23.11573489    2.02862581     -4.04892878    1.51861943   -4.24892318
    1   -0.60289958   -6.25020443   -2.76884471     26.02978879   -5.11231316   20.97805698      9.26980753  -21.08121592   -2.07220034
    1   -0.39392727   -5.80603511   -1.32397053     19.17762023  -15.96086857  -26.24068258    -16.49192911    9.78011807   12.40187192
    8    3.09985041    8.45727579   -0.65992370      0.95405096  -47.87837171    5.23318075     -2.80449562    4.73782829   -5.67261894
    1    2.14282329    8.29474972   -0.39430431     26.78296143   -7.39576933   -3.10063741     54.15340814    4.16307424  -14.11613006
    1    3.52911892    7.49904572   -0.65156963    -32.12881946   53.72050765    0.86968922      0.88167385   11.43608012   17.09550970
    8    0.31287311    4.96890590   -1.60871750     35.74605884    3.57561081   -7.53255582      5.85297348   -5.14070645   -0.97051729
    1   -0.39233728    5.62540417   -1.57930124    -13.07442209    7.65484187   -2.65845973     13.37357115   18.62144931  -11.49834984
    1    1.01950613    5.46202965   -2.10757739    -12.66699080   -8.35458077    3.79845112     -7.43723709  -18.84058829  -16.32485190
    8   -0.42172517   -7.75842568    5.17924964    -23.40069514    6.93165282  -21.72496357      1.08054147    0.37802462   -4.26781884
    1   -1.00331779   -7.48816214    4.41222427     19.27277298  -16.43208124   12.76581430     -7.44279620  -14.89899582   19.41642197
    1   -0.90020176   -7.26946443    5.87042100      2.75006369    2.25627724   11.79884704      8.04811873  -25.31024017   -6.02019011
    8    6.13915547   -7.81435182    3.17819816     -3.00185984   -2.08177838   48.74166537      0.22158323    1.11791759    3.65486966
    1    5.40988989   -8.27309841    3.74649874     24.26699010   17.66382141  -39.61692465      0.35509490  -11.24722057    7.35776897
    1    5.95141063   -7.95626925    2.24174341    -15.90679563   -9.31148381   -8.73933127     -4.34361969    3.95893257    3.71240291
    8    8.42395049    1.19507428    8.63790031     35.68326566  -26.71436659  -59.01541144      0.91941581   -2.01494696   -2.08114182
    1    7.99282210    1.44051812    9.39331972    -36.35912743   15.22807797   58.60340701     15.46288650    8.09554759   29.34514217
    1    8.82236901    2.05691213    8.45282740      7.81578105    7.58328076   -8.63105194     10.75618791  -23.76323415   -2.73296035
    8    4.05191672    3.94575742   -3.91829266    -14.46336570   22.96383207  -13.34252194     -2.08133344   -2.12258539    2.35434122
    1    4.77419551    3.89852395   -4.55465698     10.21075822    6.58665354  -11.98889919    -11.51665384    8.71557426  -19.31090768
    1    4.22451102    3.14654328   -3.47434285      4.34825537  -34.01406132   25.33119616     17.16739253   23.63232658  -11.08340285
    8    6.15598091   -8.47318242   -8.80610637    -30.19230732  -15.41599576  -17.71385561     -0.55414515   -3.24890419   -3.16916682
    1    6.26180014   -8.89378619   -7.93814185      2.25620504   -5.43453337    6.85654540      2.63365950    2.92824254    5.39130024
    1    5.29692018   -8.92386112   -9.12676981     29.95989074   16.59706562   13.02515872    -22.25629597  -25.50689104  -12.95164952
    8   -4.64047377    0.60035804    9.29270885     22.38775706  -30.49986441  -13.74045561      3.81175313   -2.63160216   -1.87546429
    1   -4.33556621   -0.37117537    9.25523597    -13.17419048   30.36812714   10.32874962      7.25098732    9.92173696   -1.06106140
    1   -4.13801781    0.92072603    8.50934842     -3.75912675    2.86647972    2.75938064    -26.61138641  -30.02879190   64.54884104
    8    4.90467201   -2.14557030   -6.49919397     -4.72466292   94.17385101  -35.03216966      3.00752323   -2.90957763    1.88727914
    1    4.95259023   -1.95813893   -5.55663029      4.19312061  -10.52246959   16.59632792    -13.74924364   13.66107315  -22.48065404
    1    4.86232707   -3.03268863   -6.57076971     -1.02498236  -76.35106646   10.22971181    -10.40585917   41.93790634    0.58313279
    8    6.09065279    9.09341136    2.49941228      0.79938803   -6.30960763  -61.07323391     -5.81275827   -1.62720426   -1.90286607
    1    5.49049620    8.88666695    3.14292222    -51.13074617  -15.16782043   36.94475717    -15.16582743  -12.28450264    4.84523664
    1    6.79781220    9.24089959    3.06433968     47.45723404   18.96941687   25.90363800     11.06552538   33.17342298   12.90781283
    8    0.19504224   -8.90643826   -6.97584397     24.73379883   42.74071389   30.02840604      4.34937363    5.83289768    2.13252519
    1    1.18382240   -8.94383174   -6.87416642    -13.40590625    1.01013136    0.59171677    -14.94959848  -12.24067929    6.04900825
    1    0.09072218   -9.64093176   -7.52614876     -8.26572093  -42.87525966  -30.03292021     29.37244817    6.07991097  -11.81053369
    8   -0.96803921    4.55006163   -4.73460515    -54.03278282   19.77208888  -24.74820047      1.69558619    0.68595791   -2.28586820
    1   -1.05362169    5.53620081   -4.50484600     -1.80990121  -32.89700116   -7.99888004      6.40680866   -4.70848776   -0.85776959
    1   -1.85422450    4.39947138   -5.27648054     50.68504807   11.33603713   32.18510454      1.93658656   -5.64425473   17.18137916
    8    5.23791922    2.60043809   -8.11540298     44.12013765   19.40204226   -1.02009756     -1.37121018   -0.04321273    1.56420399
    1    5.68282382    1.77588378   -8.35218456     13.42189901   -7.13437048   -1.82650568     13.89211857   21.25537742   -1.16496675
    1    4.39166617    2.28155515   -8.05046329    -62.48449893  -16.71968333    7.89873838     -8.94968138   -6.27847038    4.97549652
    8    2.51322799    6.07154309   -3.33760387    -23.23403379   66.25610494  -11.64453876     -2.74237084    0.28885582    1.63050649
    1    3.04958176    5.39182887   -3.64085454     28.61603115  -47.30201423  -13.93689312    -24.87895844  -21.90827692   10.65339652
    1    2.69340151    6.72221960   -4.10272271     -9.64475337  -19.36979755   27.73583815    -15.12841677   -7.61869305   21.13052918
    8   -3.08182212   -3.16589659   -7.41355225     15.14015627  -14.56223682   -2.73873999      0.76489693    0.71277934   -1.60451048
    1   -4.01237951   -3.40527529   -7.56698815     -8.09537794    0.55911315   -3.24317249    -23.55987890  -22.83893047   -3.19402812
    1   -3.15451288   -2.27051826   -7.07905211     -6.83468916   19.51618800    3.50725824      4.86577697  -25.13474824  -16.43719365
    8   10.19735953    0.81588833    5.14516403    -51.14257897  -25.83046939  -22.04920903     -3.15193348   -5.80243690    6.26055534
    1    9.19178203    0.99100997    4.92203029     53.33059257   -0.92738418   18.76161860    -16.88708522   -0.83044326  -14.80064063
    1   10.13114212   -0.19232999    5.03152789     12.43859972   29.46480359    7.44974495      3.25473496   46.23439597   -1.77846616
    8    7.22790285    8.91461528   -8.59662113     13.54879781   -8.78575232   20.82442125     -3.19195421   -0.55974478   -3.51215223
    1    7.09718312    9.72148695   -8.06241806     -0.45052984    1.14875460    1.85142297     11.62606318  -11.57601783   12.05313987
    1    7.79972003    8.38038617   -7.94406367    -19.74573666   11.17532472  -23.61281280     14.56397433   12.87789712   -4.08282086
    8   -2.87654056   -3.69952572    3.00791385     30.20449917   -6.51856595    0.82557945     -0.70703688    1.19829758   -2.00138763
    1   -3.08797899   -2.86951413    3.45224152    -12.13161947   11.15264272    4.25900057      3.96629117   15.29638489   19.67228696
    1   -1.93700878   -3.79050274    3.35005774    -20.11350877   -2.88624262   -7.13336260     16.39441178  -26.22073897   -5.38178805
    8   -7.82907037   10.15100889   -8.80904974    -70.78547393    7.60736637   17.58571159     -2.74368341   -3.96114716    1.18418598
    1   -8.56896036  -10.00309399   -9.18384431     52.06980289  -23.00115734    6.22236485     -6.17202741   25.69478447  -17.63379374
    1   -6.97328161  -10.28365299   -9.01449982     17.60611710   24.78585638  -18.26682315     16.52682013    4.96156392   -5.35782510
    8    8.83770473    3.61592762    1.61067877     32.41807393  -51.95414845   28.48691359      2.81173412   -2.94943775   -3.06502647
    1    8.60601267    4.21378615    2.36123717      2.99813121   -7.19739093   -0.22479784    -36.01670270   17.16900306   32.37826657
    1    9.32597115    2.79641441    2.06570572    -32.01442331   58.45597982  -32.59261406    -12.15602234   19.80152353  -12.48991955
    8   -8.57239781   -4.09139020    7.37627938     20.28059411    2.92103664  -11.27024824      0.42697777   -0.21844710   -1.14866922