 BEGIN_INFO
   #
   # This is a XCRYSDEN-Structure-File
   #
   # aimed for Visualization of geometry
   #
   # Launch as: xcrysden --xsf HICOLM.XSF
   #
   #
 END_INFO
 # estrutura final
CRYSTAL
PRIMVEC
      20.79253836       0.00000000       0.00000000
       0.00000000      20.79253836       0.00000000
       0.00000000       0.00000000      20.79253836
PRIMCOORD
  927    1
    8    4.48506550    2.94207582    2.38919165     10.82268208   18.45707650   -0.59659605     -0.41947845   -2.35315354   -2.14608888
    1    5.02226549    2.90928456    3.26388544      0.54965913   -5.36295427    5.54969328     20.08660753   -2.12378042   10.07447155
    1    4.40343959    3.99475717    2.32179150    -15.49594758  -18.86046934   -1.58867716    -38.84218248   -9.94648215  -19.29811335
    8    9.95355431    7.34664854    0.70150917    -80.98357477    7.70858250   19.99351758      1.34404961    6.12430248   -0.63045839
    1    9.01318063    7.15505971    1.21068055     48.15639328    5.29541625  -32.80830678      3.83409427    7.76224251   -5.95865898
    1  -10.14872222    6.88718514    1.26547915     28.01222981  -11.34985035   13.02632809      9.02081780  -15.95234133   -5.07425021
    8    9.66493254   10.26927120    7.28085488    -25.14204732    8.28264545    9.77178094     -1.50150875   -4.40037712    0.08750818
    1    9.93395516  -10.25533298    6.32997092     -2.38667162   13.70578116   -5.68108482      0.85015306    7.76335932  -10.17605850
    1    8.80342817   -9.95512747    7.55921247     32.74882835  -18.27496188    0.86064598    -38.91275191   20.92234305    0.97153804
    8   -1.22360667    6.51038041   -9.20323781     -0.13119211   -7.19787708   28.50951652      2.36115791    0.25567146   -2.62064287
    1   -1.93173806    6.80740186   -8.46947897     22.38440292   -6.40916704  -18.29686726    -25.13215984   17.63643091   17.45998497
    1   -0.41045696    6.03520606   -8.72555306    -20.35117973   15.39372033   -7.33804489     -2.26757980  -27.19368916   36.71676632
    8   -9.06187332   -8.69266076   10.32992640    -14.54712982   12.93711786   -2.01406211     -1.18224271   -0.60755006    7.09292646
    1   -8.64647961   -8.20543923    9.50822845      0.65806680   -4.63160891    8.79304223     -6.42855763   12.76050778  -28.98260267
    1   -9.97650576   -8.24954965  -10.23232709      6.28297990   -3.94518535   -5.38680643    -18.34689400  -17.78128352   -1.61262373
    8    5.37723974   -1.16906073    6.03985377    -55.13040768    9.88929318  -14.83915069     -3.79692975   -0.50928219   -0.07627857
    1    6.05462468   -0.50836184    6.24314043     40.52787790   35.14283921   14.53644642     17.14151598   19.24045690  -25.50341464
    1    5.73359266   -2.07260356    6.20059645     16.49700928  -42.05588805    2.49223162    -22.24495751   21.45161036    3.80185514
    8    3.21686087    9.91515687    7.69624899     14.75802638  -28.16206657  -19.19910126     -1.38627459   -1.16980955   -5.29336293
    1    2.43620600   10.22427408    7.14890065    -23.38740495    4.71592168  -21.85206449    -23.91523416   -3.86643157   -5.24640640
    1    3.06424767  -10.36275699    8.52473916      3.90874748   21.90674461   40.63726286     12.22200133   22.13185196   -3.60765040
    8    3.69253167    7.13309747   -5.23541561     14.09589672  -32.16978756  -47.76697921      0.43666712   -3.67340248    3.42232652
    1    3.67311820    8.06118521   -4.89154458      7.77930914   40.62477294   18.47385084    -11.54695559   -1.08178046    4.93137464
    1    4.30945587    7.12012221   -6.09276203     -7.54567054    0.90942845   23.25388182      2.54937450  -20.37502891  -10.89727105
    8   -2.35778213   -6.25458524    9.21153099    -62.27907901   13.75549396  -63.12991904     -0.40784087    3.11113461   -6.14804117
    1   -2.33088880   -5.36180355    9.64136707      4.34018720   39.23111160   22.41408478      9.82607997   18.81047297   34.14089475
    1   -1.76923457   -6.84873966    9.69014254     52.69946907  -39.84250532   37.97124310     16.82349395  -26.10221610   36.17263803
    8   -2.61411996    2.01775502   -7.85100513     20.69253257  -36.24962428  -12.54009595      0.77634893   -3.86320016   -0.28250767
    1   -2.64779360    2.73361897   -7.16962887     -4.80026379   29.23503109   33.83129158    -19.70320613   10.25729767    2.79196306
    1   -3.04249934    2.36230981   -8.68986830    -15.69453858    7.37347553  -24.23436988    -27.11778063    1.93663415  -21.47194040
    8    1.00861970    5.08467542    4.17673171    -21.55097786  -49.55896432   14.85432020      0.23686184   -4.25084421    3.02053895
    1    1.26834319    5.80163832    3.54326263     10.20825928   38.14990885  -28.56237776    -12.42345852    5.79613813  -24.95262229
    1    0.52808276    4.34663103    3.61590590     11.27903259   15.32001178   10.63511103    -17.21535752   -0.67196939    5.50076483
    8    7.26353467   -6.49417834   -4.60341577      2.27186692    9.67833397   11.96078677      0.27539388    3.35576198   -1.41874858
    1    8.20889163   -6.73450548   -4.90637804     10.63050773   -0.01646383   -8.58976103     22.76867787    4.32508001    3.41376238
    1    6.90641331   -7.34288187   -4.17250491    -10.39311876  -12.01067120   -0.33148600     -6.30081745  -22.59839552   12.39311186
    8   -8.84992068    8.82372988    3.73268575      1.45271422   22.52268087    9.91351245     -5.22298886    4.18526140    2.59991167
    1   -8.84420166    7.99159403    3.15290651      2.37470339  -16.50151648  -12.53615163     20.82198650   -7.51166744   16.03594382
    1   -9.33882828    8.59689824    4.61176210     -1.96784980   -2.66662032    4.91871868     -4.30913214   -6.98139459    7.64245653
    8   -1.95306109   -8.11356478    2.86441573     39.44513089   20.16290009   29.86361878      4.78421707    1.18155953    8.71481515
    1   -2.53525489   -8.64145337    2.26636842    -25.05545954  -29.54174991  -25.20731632     -1.23462081  -13.32490667  -34.88701166
    1   -2.52662154   -7.29569383    3.12120345     -7.56448054    5.39462917   -4.96887674    -34.17377908   43.70093606   16.06388097
    8   -1.82947807    3.92847344    6.73236863    -13.64430314    2.18865543  -13.06771131      0.68442594   -3.63309640    0.48178833
    1   -1.73780365    4.44960094    7.60117411      6.32314606    7.53707988    8.94150556    -23.05387526  -25.41973122  -12.61011575
    1   -0.92706390    3.59553416    6.40437528     16.45912221   -5.96195653    1.05139480     52.72878616   -2.64978276  -14.10008866
    8    2.94109574    0.71412165    1.93071404     20.23991476   16.26198491   31.16509962     -6.40600016   -0.12794981    0.24463571
    1    3.62780175    1.49093065    2.14582441    -19.44091819  -13.17984000   -7.72577966     19.40301821   23.63040336   -9.42222138
    1    2.76523104    0.65572896    0.94949195     -3.06899409    0.29698547  -32.33204994     33.84029470   13.48251564  -13.38629803
    8    1.76303991    2.31278210   -8.58201049    -28.94867921  -10.60176627   20.02078788      0.89081354   -1.48834183   -2.77318124
    1    1.08654139    1.55257501   -8.28212131     24.96019920   21.93360045   -9.25287662    -21.88725496  -45.66827722   28.18986646
    1    1.48942163    3.08183470   -7.94516560      8.46685610   -5.31438968   -5.98017009    -11.24723845    6.75718706    9.73829465
    8    5.99158884    0.04009150   -7.65864152    -19.08989682   12.65252090   28.87074925     -0.14476027   -2.68784529    1.28677466
    1    6.46048153   -0.71142745   -8.13020433     17.98839551  -17.23653288  -19.84312470     -2.63682776   -9.61288092  -36.01990396
    1    5.58525071   -0.41049728   -6.82149443     -0.37134086    2.62908792  -10.79849488     10.26948162   10.17260533   12.92065891
    8   -0.32603327   -7.25782064  -10.22342582    -42.57236653  -33.40563985  -18.20983545     -5.60220018   -0.92629282   -2.18615629
    1    0.45623212   -6.78183983   -9.88892275     51.62384704   31.70218380   18.42924985     35.83385293   28.45563594   24.32058873
    1   -0.03753524   -8.24156442  -10.34814121     -1.64884950   -4.03395738   -0.94869000      9.88870447  -39.02048085   21.17731408
    8   -4.16828471   -0.02752601   -2.49722128     -3.88766075   33.99059407   60.97681970      0.27690924   -1.78277149   -2.57860332
    1   -4.26797605   -0.53709282   -3.31209794     -1.97001437  -34.30093106  -56.08445627      0.78592863  -17.29453249  -20.53085187
    1   -3.34936397   -0.41118621   -2.00132658      7.23257925    0.46387306   -3.43986768      8.58541757   -0.21385597    8.23352246
    8    7.58075873   -9.50164174   -6.51147317     12.27676266   54.07373334   67.46867488     -2.99963640   -7.61539099    1.68129472
    1    6.91049608   -9.32320008   -5.66713344     35.57476023  -14.34989096  -49.92089537     11.62106912    3.71206628   -1.42678776
    1    8.43562766   -8.86551595   -6.28056875    -50.54126926  -36.20093254  -15.16155401     17.99510867   26.39240106   12.32280001
    8    1.67043103    3.77443876   -6.03480024      5.72568157   -1.54487476   -1.65939746     -0.52922817    2.54219027   -0.79983565
    1    1.01292242    4.04840384   -5.31282262    -20.64296051    5.62240658    2.01112720    -34.18511371   25.95202258   10.46462230
    1    2.44981844    3.38192219   -5.51050369     13.90544226  -10.19087724    2.98086953      6.69381818   -8.89947939   -8.69258029
    8    6.73718094   -0.49161863    2.99623593     45.62276794   23.24816873   20.91866349      7.60160154    1.88337218   -1.76826916
    1    6.90899726    0.08101585    2.16953103      6.63810530    2.46508786  -13.14382187    -14.64474248   21.82689526  -12.79574141
    1    5.91244269   -0.99761738    2.87830889    -53.86224372  -27.82858904   -9.98689497    -10.30848269  -22.49194345   -1.37238336
    8   -4.95249908    1.63728573    4.92668432    -17.56305392  -32.69218729   39.01011395     -3.27650237   -0.90405112   -1.14509454
    1   -4.55189915    1.37997992    5.85856298     -8.07549524    8.25254797  -25.04237344      8.45048900   10.36856473   18.99821829
    1   -4.32706258    2.27634005    4.49510649     24.56473596   25.54501572  -13.11963971      0.95974686  -12.34206459  -16.68728016
    8    2.28612638   -5.47961283   -3.12601179     64.67833675   24.08086124   -5.02725234      4.27213901   -1.26720147   -2.38502663
    1    1.88133106   -5.12407020   -3.96816473     -6.40446773   15.92886262  -31.88084170     -7.23854675  -13.56281222  -11.08567515
    1    1.55561835   -5.97678771   -2.74594045    -57.31487023  -37.45178640   32.75390857     16.19123259   11.90329139    1.80916285
    8   -4.21255590    2.70332590  -10.05103569      4.14168815   32.86743959   44.71022408      0.32149541   -1.78358070   10.00642462
    1   -4.30175253    1.92978289   10.12664470     -5.50759540  -32.64362068  -30.35285611      5.17062185   -0.21174461  -31.81028208
    1   -4.05639964    3.58355259   10.24571572      0.53755579    6.88678413  -10.56801377     -2.39364508   26.92288714  -48.38918970
    8   -1.32313252    7.87145899    3.72249590    -30.07318006  -12.93437490  -35.54449501     -0.05112774    2.85204081    0.23888600
    1   -1.22018678    8.86915061    3.60755536     11.44451603    9.71195929    8.03983870     -0.34992388  -14.98580252   -3.75836107
    1   -0.88028274    7.38918987    4.46951813     19.90246595    2.10425508   28.22119163      5.61565556   10.01058723  -33.04566530
    8   -8.68512661   -5.52879788   -2.05322086     59.67247376   52.30683805  -62.00144077      1.72371858   -1.73617407    0.81737936
    1   -8.79003250   -4.82476086   -1.37087411    -13.24700669   34.03170746   35.36017878     -6.54830670   17.31741419    4.56370562
    1   -9.15487870   -6.29098494   -1.75437615    -48.24153761  -77.12749580   36.05253896    -11.84850722   -7.42978178   19.95788846
    8    2.58395262    5.92198303   -9.88278179     57.85372498    6.49368432  -67.30572445      0.12277972   -2.20745229   -1.77469244
    1    3.52029557    5.49951319   -9.72331868     -9.67599075    4.60801572    2.23221740     45.32128372    5.18965843   -8.56995073
    1    2.04421994    5.72017746   -9.11947130    -47.43544252  -14.71546660   64.02350209    -14.55412028    3.59148929   23.80208453
    8   -1.53154126    8.83259936   10.04229541     62.59640874    2.74755569  -49.08356890      7.36373337    1.95290439   -0.09158741
    1   -2.32416146    9.31287914   10.28567413    -63.81752980   32.77149267   24.79029798    -18.44850139   -5.08109548  -37.15618556
    1   -1.43944573    8.05036725  -10.15847284      5.26641074  -38.15150879   28.48119415     14.04165099  -29.09697963   12.26535840
    8   -3.54949758   -1.66496230   -4.66699083    -11.48118435  -14.35484903   20.73454970     -2.65718487   -1.16807739   -0.97849968
    1   -2.54908572   -1.75146832   -4.51386401     15.51951304    4.59909872    0.84636751     33.19642975   -4.01866110    5.39053029
    1   -3.69621169   -1.32168007   -5.60690217      3.09298407   11.68342905  -20.41179036     13.33646173   -4.96841153  -33.66599642
    8   -8.74965174    3.05450275   -8.30796869     12.06695209   10.49158349   -2.29120834     -1.43223627    2.16588141    2.35337237
    1   -7.77405865    3.43445284   -8.51814690    -30.08602419  -16.78124042   18.72976972     34.22098644   -4.77836141  -12.61189039
    1   -9.10892785    3.40982156   -7.39074647      5.80936876   -2.51962325  -11.78835716    -27.60143968   29.32018525   33.19720319
    8   -3.10833410    5.97554130    2.97873967      6.45823271   42.24709440   67.25706116     -5.60055234    2.24747262    1.77911718
    1   -2.34382073    6.68091095    3.15821341    -16.82028209   -8.90307796   -0.03180930     29.63101382   -8.52914743  -28.58806373
    1   -2.93473922    5.54689409    2.13363814     14.67327673  -35.47714070  -61.63552042      7.56167152   -0.78350763  -38.77780367
    8   -4.62905494    5.65821270   -6.88047830     32.03743863  -41.39110804  -21.91904552      3.21911809    0.19680530   -2.99766286
    1   -3.97370526    6.40425227   -7.14028145      8.24214646    5.45481746   -1.45658435     22.69076201   -1.25490437    7.23500239
    1   -5.39116471    6.06979360   -6.44507791    -46.74275882   31.82356520   23.77630594    -52.14744989    3.10185771   25.35486746
    8   -0.86825187    8.78398754    7.47504224     18.38483489  -10.47329448  -66.19126618      1.03264106   -1.08152861    2.31012239
    1   -1.15535029    8.71338853    8.42212422    -11.46239181   -9.88579580   45.73558864    -29.35822230   10.81396328   52.89927525
    1   -0.55213814    7.86757177    7.04972405     -9.57311443   15.97808757   14.46795968     20.41907758  -29.13100779  -27.69134889
    8   -8.71963717    6.54618093    2.25999224    -54.18295856   35.43462801    2.30230527      0.75811574    3.62406734   -3.96335541
    1   -7.93647509    6.52357734    1.67508896     45.58889668   -2.86611062  -33.70347749     17.30947531    5.16676285  -22.36519622
    1   -8.61209084    5.91266442    2.99725392      6.10811168  -39.01668982   31.33708797     22.29640917  -18.70285332   13.45270793
    8   -3.84027353    9.58854390   -9.54043389    -17.97538403   19.46873189  -24.11432137      1.41486449    3.96651056    2.72951807
    1   -4.36876957  -10.38758896   -9.96993566     14.97964807  -21.84667309   22.41460866      0.58232718   12.70794062  -27.45462226
    1   -3.78324756    9.68355765   -8.51340135     -2.36625658    6.91596130   -2.40057316      7.13791087  -26.20293280   -9.77053093
    8   -9.15001956    9.67086417    9.15836190     -9.06692313  -31.12607772  -42.38331124      0.77283853    2.22656968   -0.87896260
    1   -9.87069524    9.88601554    8.43405870      6.17333483   -8.14836755    8.31805673     -1.63733104   13.73357876  -42.60981853
    1   -9.15758168  -10.33013766    9.74391111      1.66565602   39.56124753   29.86651488     28.16677479   18.69010600   -5.05295584
    8    0.94488799   -1.04884359    4.09514864    -19.24570503  -35.16194334   -0.65554192      0.20888970   -0.20596002    1.38115954
    1    0.81715378   -0.25920520    3.49560218      1.34901584   23.74795376   -8.44534737      2.29408534   11.78198999   15.02349159
    1    1.72526984   -0.94118682    4.72318096     20.15895536   13.81336359   12.53650997     18.88836806   10.31748505  -12.40712394
    8   -4.50796652   -9.10624795    6.58997286      8.22004408    9.15385308   -5.21539066     -0.39106693   -1.19344438    1.83820461
    1   -5.26250658   -9.61882198    7.03463558     -7.43070968  -10.74491628    2.75125748     18.90807869  -21.17544886   -5.58093187
    1   -3.76163907   -9.77869695    6.34908939     -7.02181706   -2.70843833    2.25317387     34.46601153  -42.12319380    2.95699185
    8    0.36681012   -3.73764344   -9.16237918    -17.97903913  -31.80034069  -37.90097769     -2.72102426    4.69574313   -7.39471416
    1    0.66874362   -3.02069590   -8.56963583     15.95500232   37.05822946   36.65174277     30.06549575    2.81926162   12.89746513
    1    0.94716751   -4.58275888   -9.07207306      1.08276265   -3.56603223    3.63350961     23.40164706  -30.93797322   16.90794951
    8    2.38176410   -4.88481204    5.94341675     -3.44792561   -4.53464522   -2.99394137     -3.69603011    0.30808359   -0.32700965
    1    2.85043763   -4.95902778    6.85460691      1.89560087   -0.42703670    0.85519373    -11.38337523    1.09113503    1.99568994
    1    1.41352027   -4.60430615    6.12175496     -0.90319824    2.53381030   -0.77474799      8.81894871   -2.43289078  -20.05201472
    8    5.24264046    1.04893485    9.31449877      9.84971502   15.37172140   19.62467023    -11.45734502    0.40280183    0.64149517
    1    5.79509714    0.88464204    8.47791285      5.11838508   -5.81847873  -19.49376429     34.36919545  -30.53058102  -37.72576759
    1    5.90575539    1.62360481    9.87203604    -11.79137055   -2.69418681    6.02744739     39.68821591   42.88112266   19.40666699
    8    8.77451629    1.27430082   -4.06509074     26.67137507   17.98173184   -4.66427051      3.90024479   -2.07390146    4.25102341
    1    8.30222443    1.46439891   -4.95957279      5.27150884    7.07480657  -19.21846056    -50.35885220   -2.54483884  -43.15498219
    1    8.06349483    0.73292053   -3.64984234    -29.48703208  -25.95276612   30.84705960     -8.30666690  -17.52277626   -4.46691267
    8  -10.17129915    8.16759125    6.02119177    -36.52001323   35.06491848  -54.53154735     -0.23985397   -0.34644413   -7.45776332
    1   10.08605596    8.81669425    6.61095972      3.74338339    7.36828504    7.50673148     -3.13583537   -7.80106991    3.45890061
    1   -9.68486045    7.55909110    6.58449155     40.56174623  -47.10889126   48.67582565     35.22776926  -12.79977912    8.67641027
    8   -8.45334508   -2.36844126   -9.49397642    -60.85310374  -17.13286383   35.61290129     -0.75168391    1.35786153    7.32787497
    1   -7.57406847   -2.28088422   -9.90167584     59.90404430    7.08083523  -31.60482512      0.63655276    0.60510695   -9.42775518
    1   -8.50702062   -1.70837180   -8.71923045      1.53200986    6.05237801    5.56629009     15.55301801    4.49956324   -0.50546281
    8   -7.95201835    4.89644301   -3.67791489    -46.99084265   -6.78218295  -47.23059275     -1.77478575   -3.72034407   -0.79462732
    1   -8.58110527    5.30026995   -4.45958742     42.05914195  -12.66100808   44.53360700    -23.84577487   -8.60573541  -26.08006347
    1   -7.16812080    5.46919685   -3.37950632      9.56334354   19.81517048   -2.07556635     14.72141703   -5.67863693   22.30081311
    8    6.06150808   -8.98215127   -4.14300070    -34.78665335  -24.97858236   33.45868374      3.51255022    5.56113374   -3.24696829
    1    5.13405687   -8.57625356   -3.75946172     45.17942627  -20.24949479  -16.87488179    -28.94796577   -1.53864366   17.29331099
    1    6.19010960   -9.97009049   -3.73018179     -7.81452473   51.03285334  -13.16610151     23.12097053  -16.58787833   10.88523609
    8    3.76053359   -2.00937262   -8.73000171    -63.51772834   -8.19075778    9.09148766     -0.77059548   -0.70164059   -1.78140565
    1    2.70967141   -2.03771058   -8.47114908     52.81397035   10.85703329  -15.23676478    -12.60558755    1.18941018    7.64096839
    1    4.20788661   -1.82866743   -7.82301218      8.47821902   -1.21391390    3.06392042     -4.87571320    9.37647791   40.75041497
    8   10.16026113   -4.18028108    5.87999542    -14.64419042   60.23896770  -45.10929704     -3.44785358    3.18984526   -0.68274245
    1    9.51169668   -4.82046024    6.25576663    -34.20378848  -33.46932658   26.24680842     -2.07610460  -19.94943587   19.56950422
    1   -9.75201199   -4.44986961    6.20324689     50.85711322   -8.87630610   22.36964611     39.96914958  -13.67899527   -1.79545644
    8   -0.91256563   -1.03810511   -3.88125692     -3.23024147  -18.64763070   -5.16053471     -1.70021927   -3.71358565   -3.60424979
    1   -0.72639921   -0.07695115   -4.14559807      3.00101449   17.79453587   -4.14242622     -8.41069328   34.27000873  -25.68081827
    1   -1.29359748   -0.99887557   -2.93237403     -1.15032426   -1.33684180   12.59212419    -30.44914265   32.93610925   30.21776795
    8   -0.07218369   -6.50989010   -2.32115785     57.75092297  -20.25933373   14.52032450      1.73829724   -3.10105449    2.75555936
    1   -0.75927991   -6.60173697   -3.01194056    -38.19830917   -1.96493364  -40.56984881     -3.55442230    9.48606962   -0.52932076
    1   -0.45624873   -6.02737542   -1.53594670    -20.92815701   18.08587983   26.92753038      0.26555408   12.14251663    3.55032602
    8    2.62665404    8.07500640   -0.11911645     17.51721816   11.90491570   -2.40318397      0.97337659    1.01522731    3.74155904
    1    1.70573332    7.74980645    0.18870590    -11.33437817   -1.72121008   -3.19534658     11.31975926   -1.46214117  -42.64215636
    1    3.21873145    7.26137507   -0.33884084      1.11836571   -6.85604915   -4.29496941    -22.91198337   -8.15884275   11.45760698
    8    0.31197441    4.58726932   -2.13808417    -63.19444299    7.42466365   17.11569972     -4.42709448   -0.17350455    4.11672895
    1   -0.60344916    5.15275095   -2.24859071     46.82388815  -24.65108098    8.30751244    -30.58387268    4.61370456    6.34384348
    1    1.07036633    4.97534976   -2.64938524     24.08751966   18.27130708  -22.83613269     18.27824072   12.85552390   -9.68052220
    8   -0.42080999   -8.01938111    5.26102424    -10.65564049   15.72748492   10.30094364      8.97689085    0.88738782    5.47847860
    1   -0.96832929   -8.15769630    4.41304164     -2.73509828   -6.27731054   -8.78228055    -27.40856089   -4.71895901  -68.31669123
    1   -0.91903505   -7.23868878    5.75562757     13.23484582  -13.35149431    0.48181187    -34.81448703   12.06935034   12.94712604
    8    6.01994436   -7.58164475    3.21930339      1.31713768    1.65969847   60.75992431     -1.07150288    5.09739920    4.73350883
    1    5.39411449   -7.88020139    4.01768913     14.89749125    6.93487594  -19.04326073    -14.63536239   18.78423302   11.43260724
    1    5.70742172   -7.91640097    2.35271436    -17.72208933  -18.81367752  -42.68986921    -20.52495082  -39.52144267  -24.43710490
    8    8.94892207    1.97020632    8.96037030     13.64607697   55.90316845  -49.28628063      1.58961104   -4.85597229    0.09694534
    1    8.44927430    2.20738771    9.84101295      0.09680307    1.30713491   -9.97046938    -44.85808816   12.87373493   46.51470862
    1    9.19189689    2.85756706    8.35037575    -12.90375512  -50.93787597   54.30094591      9.89701238   35.08749152  -49.51540817
    8    3.73738887    3.00911010   -4.39333942     49.92468655    8.68414196  -55.96621451     -1.50044982   -2.78186095   -5.93468262
    1    4.59373014    3.09492208   -5.07859525    -50.88532289   -3.69305706   52.58172151     -8.65817937   -5.31170555    1.17549296
    1    4.07523113    2.52775120   -3.55181770      1.81463306   -3.56206820    8.29274829      7.98154043    5.58194739   10.19934842
    8    6.72692833   -8.57898101   -8.92878854     32.70711994    3.68972278   35.74512370     -0.29187198    1.10842011   -3.85930675
    1    7.06983986   -8.87094312   -7.97448489     -3.71776820    5.77629886  -19.60944829     33.12904091  -38.87705862   46.82068022
    1    5.88739867   -9.14702523   -9.01828088    -19.68652264   -6.81113010  -12.11483576     -3.67406191   -7.59786062    5.24672606
    8   -4.57526940    0.64842173    9.02833531    -48.33843027    9.13583231   43.66546366     -3.02788731   -1.34840958   -0.43515413
    1   -4.45529710   -0.32888454    9.23603110      9.01174994  -22.95951603    1.45693378      4.06094252  -58.78422529   22.25435380
    1   -4.00267489    0.89605811    8.28166370     41.40586360   15.46504481  -48.31866209     23.33776934   13.29810691  -33.85914153
    8    5.00365426   -2.31233348   -6.38109417     -7.83191674   -6.91642367  -37.82905931      1.76826286    3.19415918   -1.90102533
    1    5.13501101   -2.29252697   -5.38425361      6.03640859    4.79855891   34.69718228      0.04983602   -5.60623779   30.24528162
    1    4.86290914   -3.30364570   -6.59455825      3.62288309    1.49206177   -0.62227474    -14.34050059  -37.49498226  -14.19398362
    8    5.75345040    8.44298686    2.58357098     63.19622599   -5.42218820 -103.90834913     -3.27425121   -1.93292488   -2.96894919
    1    5.11265088    8.28640260    3.21617672    -87.73605783  -23.60719248   86.36487163    -15.13292206  -10.28806551   20.15641923
    1    6.39365709    9.07373041    2.98930701     30.18172308   27.71704644   20.60606428     17.09545390   31.50539670   16.92755216
    8    0.56162181   -8.89472516   -6.75866615    -16.35444416  -13.98183560  -14.28518637     -1.34733812    4.22898210    0.33070509
    1    1.56240128   -8.86448908   -6.66460366     26.18469171    9.87285224   11.14649692     33.79751742    8.99516261   14.72215989
    1    0.50361925   -9.67668750   -7.42577225     -5.95916896   -0.79059576    4.90247332    -24.79915879  -50.97111599  -13.58438984
    8   -0.72244886    4.67781243   -4.97863303     43.58264392    3.52152834   12.86646184      4.62294124   -3.07353590    0.92837348
    1   -0.67719832    5.65028469   -4.65787568    -12.13396709    2.39297451   -3.92409692     23.88503947   53.38609203   18.79905288
    1   -1.66512665    4.39226063   -5.18214517    -28.70520149   -5.62602373   -9.52573767    -59.92047645  -33.24816484  -13.45898597
    8    4.48385005    2.50875874   -8.13141134    -48.71348718   36.26049842    1.73016919      2.28657810    3.54987851    5.70019991
    1    5.02481274    1.66716150   -8.11222463      5.02010602  -33.48898324   -3.21200017     27.07074052  -33.32026093   23.62737395
    1    3.42633632    2.43192350   -8.30268651     39.92412288  -11.97886393    4.28941912    -66.70263261    3.62335346  -16.78195943
    8    2.73465249    5.40215600   -3.51959026    -61.71027648  -53.35234702  105.11236584      1.94095021    1.23393257   -3.16926299
    1    2.91772814    4.49842418   -3.88702901     13.45249078  -37.42532660   -9.20370928      8.07191123  -73.09961102  -35.01134165
    1    3.06069175    5.98791673   -4.14234815     46.08398837   85.51068097  -83.57795286     19.00465087    2.30012404   -9.47236029
    8   -3.09661293   -3.01333279   -7.65203886     -4.86147088   22.95302842    5.37592093      1.18273907   -4.12146266    3.15339187
    1   -4.02194264   -3.45118887   -7.60988233     -4.26375206   -1.59305975   -6.13134188    -39.07849933  -24.41571051   -1.11081292
    1   -3.34479017   -1.99074274   -7.57020343     15.77506400  -19.72646628   -0.40992122      5.02111931   16.73826848   -9.25514718
    8    9.97228887    0.89181589    5.10027775     66.74868298   64.96650390    4.26579466     -1.45256508    0.18569657   -1.50469001
    1    9.03320387    1.09235854    5.04180874    -77.15950285    4.23256732   -7.50134727     10.84120803  -13.29097619  -20.03883762
    1   10.19417714   -0.05159145    5.10333399      6.06470091  -68.68086473   -6.36008616      0.07181208  -23.34407748    7.35732073
    8    7.57578348    8.72658021   -8.31839620    -10.73563706   24.37525156  -15.85826133     -4.22787500    1.93437096   -1.32331908
    1    7.64071884    9.55094579   -7.70758681      1.08815639   -2.80561988    0.67184004     -0.70742519   26.34689333   37.95725780
    1    8.16763724    7.96214666   -8.00581689      8.07320848  -11.57961528   11.95339927     16.61706459  -32.48886168   11.24021882
    8   -2.57840664   -3.64296415    3.06950318      8.36218366  -31.47189350  -22.71121697     -0.50723456   -4.62704536   -1.83629631
    1   -3.18685189   -2.93977941    3.43120564    -11.57382851   30.38826782   16.11987634    -10.97499349   16.45078722   19.15102946
    1   -1.62119673   -3.45820736    3.40752547      2.97758617    1.09633642    1.56902458     26.76585762  -22.35217430  -14.59873343
    8   -7.44799995   -9.85030971   -8.73308429     10.35752964   53.46759864  -48.71297107     -1.39044684   -0.70385841   -0.91938093
    1   -8.26379914   -9.37452298   -9.27291854     42.74846128  -22.30471667   20.86885586      5.56129363   -8.20692507  -22.40994780
    1   -6.55621304   -9.33820513   -9.13454201    -53.21401504  -38.74846423   25.58816407     10.47323621   26.72749077  -10.64581372
    8    9.45747877    4.08175469    1.59033736     -2.38338285   23.32792436  -27.77972360      1.03239343   -1.31524736   -3.64679808
    1    9.07768187    4.56715119    2.38675410     -2.56925788   -7.26534361   17.29444979     10.30869427    6.14024065   -8.09640434
    1    9.66314146    3.09688040    1.62469160      4.80673498  -22.62351196   19.71009379     12.48981943    6.69924764    6.77267414
    8   -8.19181320   -4.08798150    7.05629804    -17.45245216    1.33161927   12.57342869     -1.26663195   -1.35945415   -0.22153845