 BEGIN_INFO
   #
   # This is a XCRYSDEN-Structure-File
   #
   # aimed for Visualization of geometry
   #
   # Launch as: xcrysden --xsf HICOLM.XSF
   #
   #
 END_INFO
 # estrutura final
CRYSTAL
PRIMVEC
      20.77095193       0.00000000       0.00000000
       0.00000000      20.77095193       0.00000000
       0.00000000       0.00000000      20.77095193
PRIMCOORD
  927    1
    8    4.73093457    2.98978588    2.03281168    -11.25604890  -13.97962232  -33.26770731      2.18461837    2.53663957   -0.61161892
    1    5.09468106    2.64138294    2.84813529      8.41858455    9.51050703   18.60075931     10.04966501   -3.01098454   -5.46087230
    1    4.61542557    3.93406210    2.18176918      2.58579118    9.52092740   12.57735338    -32.93790435    2.22772997  -10.43092359
    8    9.24161613    7.56194524    0.87883889     26.28164845   15.83086491    2.80733118      4.55343665   -0.99183757    1.30645908
    1    8.49406579    6.99908741    1.08791939     -4.22011039  -15.50697157    9.25009577     22.70618692    2.86765042  -10.90869076
    1    9.98948664    7.26340153    1.49253692    -21.99653446   -2.11988160  -21.53518123     -0.68983888   -4.17358420  -14.84432211
    8    9.99246557    9.96763418    7.22128833    -27.15033754   24.02238938   15.43465937      1.91494570   -1.84065335   -3.89074252
    1   10.19530141  -10.14172632    6.52911436      0.26640844   -5.35099580   -3.16073145     -9.54322598    8.00295894   -1.94845299
    1    9.25752007  -10.28068122    7.70966674     27.02411478  -23.76470756  -11.84304547      7.77853542   -1.49319728  -24.32378721
    8   -1.17520794    6.87315656   -9.33169550     57.59398442  -19.99712606  -31.95171147     -0.18671367    2.11743211   -2.51884012
    1   -1.76617681    7.04679369   -8.64656368    -37.13831787   11.98854108   37.85846378     -3.01286427  -28.01020074    1.14076703
    1   -0.44867828    6.41222787   -8.81118827    -16.40596794    8.68170107  -17.21770196     -9.97826488    3.84806117   10.35202948
    8   -9.48167938   -8.80369163  -10.27482969    -24.66825882   65.64727874  -15.40938303      1.50914886   -0.79266893   -4.80579806
    1   -8.92854381   -8.23271909    9.84108392    -32.37334452  -24.57822510   24.52221893     -6.43650936   28.82217255   37.49298864
    1  -10.36882474   -8.21925206  -10.13683714     63.78723179  -45.76221497  -10.26204833     -0.67038658   13.94594243    2.86328815
    8    4.61815602   -1.93459160    6.99781286    -13.83875356   26.38260093    6.45945491      1.16211447    0.43673748   -4.06386831
    1    5.38036676   -1.34064494    7.16712385     -0.80280883   -6.00186674   -0.41337108     -6.63516435  -16.48462280   11.52937241
    1    5.00734246   -2.62818161    6.47007060     14.09595930  -13.13543245   -7.51939560     -6.27504490  -31.56402015  -12.03507551
    8    3.26489797    9.54747071    7.67012203     13.85468968    1.21434262   19.10138236      1.02569850   -2.21939333   -2.00246043
    1    2.57200895    9.89874897    7.10175363     -8.67945081   12.44399475   -1.35097899      8.94655734    1.74930292  -15.50028630
    1    3.25358264   10.14482975    8.47697737     -6.20304287   -7.41859955  -22.31420701      6.33241394  -16.47541832    8.93330778
    8    3.42267717    7.54603804   -5.15398305    -17.21836233    5.80897435   25.24885939     -2.02063726   -2.17700236    1.93220739
    1    3.65522011    8.45395442   -4.79758916      2.11849530  -16.23092617  -18.93140881      3.81304098    6.38302427   -1.92078057
    1    4.03396236    7.36203798   -5.89443057      8.74024413   11.69050847   -4.04629052      5.73080541   29.99560335    2.25996323
    8   -2.74249361   -6.14598686    9.51395308     11.20932543   32.13206208   -0.30785422      0.64841059    0.01730139   -1.69588841
    1   -2.59613043   -5.17337008    9.76859427     -4.83813942  -32.19017242    0.00168938     20.29457440   28.41875432    6.58419684
    1   -1.92590935   -6.56575288    9.87796618     -4.59573818    4.12256858    3.80226115     18.54105895    0.34106186    0.64338826
    8   -2.50212930    1.86351351   -7.56540685     -5.84812789   -6.63358723    2.72431590     -0.28295921   -3.57602763   -1.33219203
    1   -2.87403686    2.48979910   -6.91293554      2.02348658    3.19076290   -0.85122521      1.44444391    8.85846160    8.66693150
    1   -2.99401813    2.16258505   -8.35927018      3.99177042    2.30990781   -3.67162748      0.01219090   13.34056275   -9.42275025
    8    1.41778647    5.01791934    4.68136774     49.99031327   62.86954725  -20.60519693      0.77210170    4.19273420   -0.87724571
    1    1.81895236    5.56484980    3.88221127    -31.05518744  -29.74508268   45.96783297     23.51814714    2.17774778   15.67600118
    1    0.96775695    4.35236202    4.22984570    -22.76843828  -30.50201408  -25.90525809      6.01954430   -2.42359609   23.64536896
    8    7.38214733   -6.43601538   -5.03046418     -1.22101089    0.68028640  -11.98028906     -1.00270402    2.75916500    4.21237249
    1    7.81768219   -6.74822361   -5.84894796     -1.10166505    3.05901932    9.93607550    -18.67210108    3.61580117   -9.85984733
    1    7.09558364   -7.26947167   -4.61621215     -0.49001954   -5.59536722    0.43585533      5.10143920  -31.17847226   26.70880457
    8   -8.75810814    8.67005590    3.46884937      8.82269191   17.23506146   -4.95962548      0.47681543   -0.02752240   -2.03310578
    1   -8.64154713    7.79654187    3.09089574     -4.99903637   -9.85074515   -5.42288166      3.62192895   -8.64844649   -1.18122509
    1   -9.06680042    8.46836728    4.35477204     -7.12871195   -8.72482412   15.37246183     25.72472388    9.25127611    4.86995096
    8   -1.85537862   -8.06896684    2.68928005     16.62677808    7.71164582   10.24796002      2.32321505   -4.25797772   -1.31280747
    1   -2.24235743   -8.75816572    2.14447266     -7.22185565  -14.57323932   -9.59374139    -10.32530813   10.18895080   -5.39071397
    1   -2.61597797   -7.47582544    2.69153192    -10.36535009   12.64826911    5.01928006     -1.05495914   12.96301257   13.56033846
    8   -1.46757027    3.73053643    6.74592786     20.13937494    0.92855006   22.19209849     -4.48415947    3.88472588    0.17740997
    1   -1.31414273    4.22668012    7.61923164      1.57370231  -16.57266710  -29.84984622     17.47790429    5.65020517   31.06143829
    1   -0.57995112    3.28056026    6.55085714    -23.67913414   15.63406035   10.01335541    -22.00897427   11.77895247   36.66363480
    8    2.95583384    0.89796535    1.46884429     -8.77616675    1.90667029   15.29556458     -0.64329887   -4.21120336   -0.18156836
    1    3.56202637    1.61711178    1.68308731      8.00369226    8.75861263    3.43404737    -27.61129936   -8.56196185  -16.88581436
    1    2.81998845    1.10110441    0.53412358     -3.47177067   -6.66823550  -14.25127570      2.81353342   -8.60376949  -20.26779572
    8    2.18343061    1.94148842   -7.88630396     27.07002301   -7.75966580  -32.28038649     -2.11982589   -3.63866996   -1.11364370
    1    1.42294704    1.41531249   -7.63161334    -18.11302025   -2.38590949   13.65839215     14.35663463   -4.63814094   21.82081657
    1    2.16917173    2.67772297   -7.26408871    -12.99389075    5.70707274   10.46574076     38.36312526  -10.78954130    6.58239519
    8    6.11917440   -0.06168939   -7.98664677     -3.92635122   51.86318658    3.34174537      1.00310448    2.40630221   -4.04810893
    1    6.55693496   -0.52362486   -8.69336482      9.75826178  -19.73479707   -8.62784586     -7.28978207   23.49050185   18.53940389
    1    5.80061253   -0.76766935   -7.42511066     -3.79631580  -21.83393585   10.27481438     -6.89575153   14.33229140   15.94074731
    8   -0.48513077   -7.14117652  -10.10125976    -22.87138951  -19.23788027  -16.03896474      0.56487194    2.40554492    0.00380170
    1    0.31917187   -6.77004269   -9.81471364     31.31456929   25.66544968   19.78686894    -29.83142925  -19.94825257   -9.03880443
    1   -0.11170638   -8.00534328  -10.37134079     -9.86087453   -4.72635691   -1.99883641     -3.20458344   -0.87440571   22.25007462
    8   -4.29428695    0.26666986   -2.59199218    -22.17647705  -16.71735098  -27.73994033      2.84534600   -3.42470873    1.52466314
    1   -4.25552117   -0.56014401   -3.19104227      2.49980341   29.72447181   22.17008365      1.10802360   29.19742875   15.86732784
    1   -3.43852392    0.24531353   -2.15790799     15.41110042   -9.48658836    5.11515424    -13.95994565    7.68374633   -0.83156950
    8    7.07050368   -9.86636045   -6.56582296    -12.11810492   17.98774156   24.09720981     -0.10287771    0.95504121   -0.36555057
    1    6.74179541   -9.52985135   -5.69293838     -3.59481055  -13.66401455  -10.79491513    -10.16445003   -8.62364403    2.43135696
    1    7.85127510   -9.28839560   -6.60437105     16.12013163   -2.91815288   -8.49260351     -3.73374291    4.41816901   13.68074923
    8    1.47106823    3.78750858   -6.05015378     27.67686972  -15.49001482  -60.67732271      4.63623740    3.94241286    2.35185719
    1    0.79642389    4.16108961   -5.59706467    -55.76551456   24.99386238   39.11214983    -23.92664728    2.96853099    8.02136551
    1    2.06099513    3.54183359   -5.36730730     26.46845586   -6.97614843   28.84943051    -10.57185341   11.43667164   -8.15610020
    8    6.10237264   -0.53427780    2.98349248    -31.61027868   -0.68039038   13.55067982     -0.11926154    0.43788825   -2.73499224
    1    6.52211145   -0.17866326    2.19210630      1.21297548    6.42219812  -11.87630873     -6.03408109    4.76228706   12.18737950
    1    5.11277372   -0.56580795    2.74622090     40.65487854   -5.67704446    0.61947864     -5.03421676  -13.27045165  -10.98006623
    8   -5.22385941    1.92228690    4.85771337      5.77445877   10.61114162  -27.38004940      3.19056142    1.10956403    2.02879976
    1   -4.95251073    1.68011499    5.71020092      0.33426758  -15.05089044   39.70419754    -15.46381081  -13.42130026    3.97981302
    1   -4.34761408    2.31477566    4.65387897    -10.03912026    5.13934393  -14.97679277     22.79109302   32.10475951   -7.68295437
    8    2.44626585   -5.55546713   -2.78488863    -38.45395455  -14.63406394  -12.26928207     -1.59609101   -1.21258971    3.37860756
    1    2.10751779   -5.06879307   -3.59176527      5.77117663  -11.04814567   13.58405307    -17.98543506  -23.04035874  -17.64834540
    1    1.57781792   -6.01438866   -2.46771085     36.60575151   23.71989603  -10.45928197     20.73859791   24.48847549  -14.13919079
    8   -3.90350807    2.77900913   -9.71484312    -20.65995258  -36.33468700   19.18895809     -2.50162567   -1.13362527   -1.83565502
    1   -4.37695541    2.06106828  -10.20778221     11.32464726    7.40199208    2.02192726      9.68393664   -3.40818216    5.98663851
    1   -3.74378870    3.39358111   10.37052210      6.90143525   28.43187250  -23.68633379     27.86048678  -10.02071645    8.33118707
    8   -0.74023090    7.79238797    3.45377310    -24.39848142  -26.00832608  -29.43149543      0.42886373   -5.31154277    1.33100255
    1   -0.33300513    8.63115263    3.34429052      5.95846153   26.55501911   -2.14745403      5.33928699    4.64585745   -5.06378436
    1   -0.55810270    7.56681937    4.33436210      8.15405500   -5.70855924   36.85293564    -12.09351710  -24.47748543    5.51022689
    8   -8.91622576   -5.37101264   -2.00411334      4.34721483   -3.34654905    0.37310457     -2.50171503    2.27075835   -0.67973679
    1   -9.07883270   -4.55947960   -1.46547723     -7.48600045   -7.21593880    6.29827813     -3.92218000   11.32189757  -19.59609471
    1   -9.28212736   -6.11348408   -1.45431076     -2.50742082   12.02658385   -2.44162660    -17.26795742   -8.25786677   -1.34083478
    8    2.72208497    6.33338182   -9.92648741    -14.39931685    3.62474967   -9.55322608      1.35721434    6.08329463    2.61721645
    1    3.51950507    5.91585060   -9.62039080     24.81269641   -7.21828845    4.39639829    -10.68753228   -3.82191414    4.40780226
    1    2.10718633    5.81842062   -9.37432835    -11.73753405    6.42120802    3.56909267     14.16426736   -2.69314975  -10.20099519
    8   -1.43157855    9.11333964    9.70457277     -0.69754672   31.64228002  -25.38632032     -2.40061274    2.49400692   -3.07702427
    1   -2.19317601    9.52288640   10.16318499     -6.92076687   -3.35796643   -3.68844917     10.16463756  -13.68024168   20.92552209
    1   -1.28328814    8.41824576   10.29948326      8.80429222  -36.82149543   27.52496896     -4.17580705  -14.58980154   13.43212747
    8   -3.66392644   -1.67116131   -4.37636509      3.57026839   17.94123330  -29.38039178      1.01119329    0.87192752   -0.93672265
    1   -2.67716540   -1.65361082   -4.26833359    -15.36095732    2.41912295   -6.21282205      6.79877230   -5.91623003   14.08521053
    1   -3.81263950   -1.13014388   -5.24607314     14.28037330  -26.79729577   36.68182465    -16.28668293   14.05251743    7.64781395
    8   -8.84510615    2.98492733   -8.09058226     15.32747000    5.39545014   -2.78534401     -2.32028995    0.33114762   -3.31418462
    1   -7.90905707    3.32987038   -8.01190413    -19.28335159   -7.03057167    0.29761413     -2.01192805    7.23150120    8.12133103
    1   -9.28186582    3.33678784   -7.26986799      7.58764952   -4.31276651   -6.64160639     -2.15820573    9.92670635    0.93395622
    8   -2.50254040    5.60139127    3.10692126      3.54478779  -17.84368373  -10.36345844     -3.64172187   -0.44104058    0.65683334
    1   -1.94819033    6.39025506    3.17053045      5.78336995   13.13973480    3.48386545     12.49811131   25.35757294  -13.73069109
    1   -2.07576679    5.16750983    2.32096227     -9.19880412    8.17313793    9.90488412     -1.92995530   22.07810335   19.51730484
    8   -4.99495102    5.92800405   -7.10181897     22.33940484    0.75990235  -10.60317123     -0.54179734    1.51017393   -0.01864266
    1   -4.20367626    6.50925943   -7.27690063    -12.46955580  -13.16143882   -2.42371748     21.35984181    8.47576395   -2.04508698
    1   -5.49373733    6.50789952   -6.53950346    -15.47732452   16.04979575   11.58588893      8.79010101    4.17846136    0.34782653
    8   -0.87684597    9.22562106    7.02120240     -2.94866789   -4.08360074   22.61734443      1.49442149   -0.30772677   -0.56383240
    1   -1.06971290    9.05131434    7.99663250      2.31911063    6.29221401  -22.50382006     12.46694800   23.34673602  -19.87883153
    1   -0.45870168    8.38976520    6.73562948     -7.75886605   -5.44959386    0.92239836    -19.73444215   20.40169746   -5.13683610
    8   -9.19907216    6.51860940    1.77658042      1.50539954    8.37289137    7.16655649     -6.93360602    2.73992534   -1.43001587
    1   -8.32546670    6.62856132    1.36638228      3.00048731   -4.79548870   -8.66856364    -12.66185687   23.30651053   16.88397848
    1   -9.00004723    5.83511250    2.43255021     -0.48298788  -12.39749847    2.85140657     -4.67340358   -2.14049709  -13.39799653
    8   -3.75434565    9.50314713   -9.75405361    -12.95556778   19.60164516   35.95505986     -1.45351790   -1.29173012   -1.55955698
    1   -4.35619186   10.27173856   -9.90317712      2.69746390   -9.31965761   -8.95562627      2.08605548    5.05826983    3.66510968
    1   -3.83512506    9.51069209   -8.75164451      5.01039558   -9.58443257  -25.69060109      2.68532207   16.45745257    6.32812474
    8   -8.95852067    9.62537618    9.25211468    -14.73836122   30.38779159   17.37998946      1.97787983    1.43353485   -1.12715161
    1   -9.66400553    9.50397479    8.56511554      5.25765517    9.62520432   11.84505994     -6.47212930  -11.08761056   -5.87390649
    1   -9.27558063  -10.30255747    9.77212792     10.94047254  -42.27456387  -29.13554572    -16.06193625   17.66829312   21.07687017
    8    0.68564270   -1.42174040    4.52090327      6.23227451    8.61422088   12.07958250      5.19839703   -4.03431894   -2.78305353
    1    0.72690917   -0.57126526    4.07453319     -4.30463455    5.40474048  -15.23569339     -7.21184286   16.44284891  -10.16791016
    1    1.24058682   -1.13658256    5.27374445     -1.64234501  -14.17862660    6.05363316      4.87063521    6.93129147   -0.21026220
    8   -4.70387835   -9.35469024    6.66636209    -20.34484733  -10.37874861    6.41318888      0.17778848   -0.28366272   -3.66943237
    1   -5.53544090   -9.82694365    7.03061903     34.37681040   13.13838395  -13.05900053    -31.30415725   -8.85166629    9.34744485
    1   -4.19327635  -10.12673109    6.31772583     -4.54168429    4.03669230    4.28485530      3.72524896   18.91186211   -5.40738873
    8    0.44431412   -3.76633792   -9.08274272     -5.65944273  -15.34204245   -4.68645880     -2.70214141    2.33787366    2.01599380
    1    0.72333704   -2.99917625   -8.56120520      4.76654214    5.79140417   11.70220382     13.75573687   10.82962796   -2.88587719
    1    0.89766777   -4.53654163   -8.64725441    -10.01138434   11.41750848   -5.07839628     -0.19458343    8.31141178   -4.57066796
    8    1.91701711   -5.22004843    5.56864507     13.16924778   -5.45317924  -14.12369626      3.96646580    0.64937944    2.26985674
    1    2.37696860   -5.36014381    6.40846707      5.31898507    1.15066729    6.88636097    -16.69730136   -3.55834442    3.22100331
    1    1.06698400   -4.91702125    5.88953655    -14.18150957    9.20105747    8.28390321    -11.62833504  -20.35463715  -25.10824849
    8    5.17832764    0.45661021    9.75600229    -19.04664598  -14.84307457  -17.36264831      4.20932706    1.06452618   -0.51187711
    1    5.60902984    0.43918244    8.89425860     -6.22492275  -14.40541645  -15.55998186     -9.14805410  -18.59808194   14.77853667
    1    5.78337848    1.05884417   10.10361967     26.86972739   29.91238085   32.94117648    -16.64060408    5.48319549  -18.71574444
    8    8.82235307    1.30570517   -4.21716246    -35.88018303   -0.22555288   14.26814616     -1.14060852   -0.03908891    0.64588622
    1    8.41005579    1.57323305   -5.06498151     10.15031283   -1.62202484  -10.46220357    -11.47932599    4.11523098   -3.16902693
    1    7.97138244    0.96254147   -3.80169232     28.15571557   -2.12162188   -3.41673190     10.35302428    1.79744582  -14.39018527
    8   -9.77308674    7.68851631    6.00963711     -0.45314075   -4.83564855   -2.99968464      1.93401978   -0.79435562    3.03193201
    1  -10.17910883    8.39918302    6.52993981     -0.86590945   11.66141288    2.41878593     -1.05199926   -2.67841317   16.59701621
    1   -9.46635512    7.10463597    6.73000167      2.22225280   -0.76102073   -1.07728365    -17.54634375  -30.30125602   -6.63666505
    8   -8.23191839   -2.57377313   -9.33719185     -7.95777339  -14.83592640   13.71449639      0.59250900   -2.49536951   -3.36091529
    1   -7.49352070   -2.59068746   -9.96155351      9.35662879    7.61176121  -10.80787537     -3.81583041    5.57391725   14.20275884
    1   -7.86999533   -2.00404991   -8.62629315     -0.67924043    3.61826063   -1.37406105     17.95453387   12.99148977    4.38054602
    8   -7.68211154    4.85000155   -3.88424788     19.79316978  -15.65004889   14.92190806     -1.53503573    4.14629510    2.02176480
    1   -8.14594942    5.39275220   -4.47575211    -27.30538194   19.12089177  -28.92012347     36.41308289    2.72909303   11.33861940
    1   -7.04247162    5.51827600   -3.56601488      4.02733416   -1.65154271    5.77600638    -28.33990038  -18.33517536  -22.22806656
    8    6.18062514   -8.82453475   -4.11407476     17.54134626   39.88926329  -43.20118437      0.83189478   -3.40515304   -1.32160585
    1    5.37685142   -8.44384267   -3.74337464    -12.28384726   -4.42599013   12.05316656     -0.48127913   -7.69506356  -18.71257112
    1    6.28828635   -9.63132159   -3.65547641     -4.10686442  -30.04014751   29.72424002    -11.00664269   -1.97960675   40.89079790
    8    3.65052465   -2.49770712   -8.52383393     32.32821451  -20.81917642  -10.13278558      4.64325726   -3.30359692   -0.28742187
    1    2.81398821   -2.09570731   -8.36822246    -26.26147661   15.03652159   11.81712546     -1.64413443   22.00363454    9.06187427
    1    4.14513292   -2.34018483   -7.68235301     -7.00676290    2.50495403   -5.81476262     -8.08993240   -3.33942486    5.89162954
    8   10.21160469   -4.13332215    5.88955706     17.01758674    5.46939352   13.40482710      0.15537870    0.03921491    1.47309650
    1    9.62933504   -4.81994613    6.30193911      8.20378322    1.63185208   -1.97308095    -22.96704871  -16.43954128   -5.43476498
    1   -9.77857933   -4.10960520    6.53443975    -20.23355027   -1.79426997  -17.93778978    -12.61045645   -9.27389231   -5.64136803
    8   -0.90713487   -0.87085542   -3.79951216     -4.62739335   -5.36792983    2.84378074     -4.07290163   -0.28114785    1.00967358
    1   -0.84443438    0.07344006   -3.96249605      4.48236279   15.72363970  -10.15027217     11.39962330   21.62974138   -5.83738081
    1   -1.27461201   -0.78967369   -2.89901773      0.49074667  -10.51354058    6.06405833     -5.20878813   -8.98597698    7.83846606
    8    0.17294861   -6.54915795   -1.85481106    -52.96928716    9.45311110  -11.15282326     -2.72489739   -1.00949597   -4.02158912
    1   -0.48603351   -6.76183508   -2.59872376     22.60286519    9.90476892   21.83717876      9.64126642   16.75777553   33.43371619
    1   -0.43907631   -5.91757387   -1.34089551     23.23755492  -18.95681688  -15.59919626     -3.10541934  -13.27568219   -3.16638166
    8    2.98025477    8.27836164    0.02072035    -11.32260740   47.18660372   19.23613271      0.14872637    0.65442374   -0.48204489
    1    2.47238207    8.09182312    0.82204742     -5.22856823    4.38323905   -0.14093092     12.89499312    6.50385619   -2.49961997
    1    3.19347241    7.41266120   -0.18310966     21.13598924  -51.07857167  -19.93450237    -24.95868655  -12.77548998   27.09445866
    8    0.63522027    5.01836199   -1.64313532     19.67886370  -34.89461514    8.62001993     -1.29510680   -1.64310534    0.19374113
    1   -0.09384105    5.58210207   -1.72398532    -36.25833050   29.27793743   -5.36535876     17.73451556   10.13767174   -9.63529918
    1    1.25566977    5.36340555   -2.29425330     11.40549100    9.27251087   -9.44219297      3.71247368    6.51909778    4.05255399
    8   -0.51800345   -8.06383884    5.33926670     45.47688408    1.51735051   15.04225185     -4.95413561    1.03383744    0.58898830
    1   -1.13868262   -8.30306239    4.69491722    -34.32997824   -2.85584269  -22.50872209     22.48606885    5.92362334   18.81675013
    1   -0.96551831   -7.43044046    5.92089104    -11.68015797    4.28000062    3.69847732     22.77436013  -17.01197689  -32.51458244
    8    6.37991279   -7.81196672    3.26185848      4.52324451   -2.86318651  -27.97480826      2.55587641   -0.78180939   -0.74785584
    1    5.71179556   -8.31445971    3.72372876    -12.30541153   -5.28131030   20.07478760      5.66510250   22.96421261   -3.70433671
    1    6.10980290   -8.07721926    2.34268520      8.05628318   13.00626965    9.23438376      2.90594810  -24.69569723   30.39093924
    8    8.81592614    1.42704946    8.38015788     -4.38759087 -112.52482851  -12.16933405      0.57560352   -1.89627224    4.41581578
    1    8.28271258    1.69689080    9.08804880    -24.44349642   24.62365480   34.38833100     -4.60819164  -17.53988111   -6.72447738
    1    9.16168986    2.17181298    8.07385920     32.70154182   81.37152055  -21.69304292    -10.51849093   10.96666327   14.45464264
    8    3.68872114    3.54488333   -4.43575277    -41.17098171    6.48724447   24.03667393     -2.42203179    1.13387557   -2.03709660
    1    4.38773543    3.68397507   -5.01347623     38.79864806   11.98534495  -34.59452014     16.91373050  -14.39546665   18.63774565
    1    4.10677518    2.88128042   -3.87507180      1.14458759  -15.24247842   12.00841348    -24.02191737   21.54668510   -6.97765166
    8    6.41051525   -8.02656098   -8.45840626      7.89552338   31.86510981  -29.41711796     -1.96065398    0.38074088    2.85461917
    1    6.54416078   -8.56097880   -7.70854998      6.16968613  -24.18918315   28.34145642     -2.83575453  -10.02766158   13.14918667
    1    5.59407148   -8.41486406   -8.78955094    -14.10523431   -3.84314409   -5.04860733     -5.74479004  -23.47115893   10.39509557
    8   -4.61068771    0.67614358    9.24977867      6.16036959   18.02076405  -33.13095428     -2.14236086    1.01808657   -2.46301191
    1   -4.25459741   -0.21980856    9.36299626      3.97116629   -5.71958320   -1.87930566     -4.54745267   24.47940678  -36.81785926
    1   -4.25494841    0.90317341    8.31510522    -11.39723870   -6.71557087   37.78873867    -17.32912111  -26.88067427   36.12625398
    8    5.27978162   -2.06873485   -6.39338410      2.87840287  -11.46104934   16.43330494     -5.00607115   -3.34058999    1.27637202
    1    5.28615761   -1.93748690   -5.42290113     -1.81225689    5.96791322   -3.07867789     12.13802335   21.57118719    6.38853561
    1    5.51570102   -3.02309066   -6.37220436     -3.35509004    3.63142759   -5.63773061     -4.36317188   25.73412015   18.34139714
    8    6.25756299    8.80768309    2.46887866    -41.75892574  -17.28998414  -15.98821297     -0.01506040   -0.52587380    0.06719795
    1    5.48729126    8.51917285    3.02383707      9.69385253    4.15993366   -7.90789475     15.39687726  -17.49031539   22.25679657
    1    6.79276751    9.18283361    3.13811327     27.29263203   15.21520033   24.63726136     -7.32219816  -19.57762654   29.51097922
    8    0.22631132   -8.72738930   -6.78111306     46.48420595   -2.84372400   14.93895137      0.70269136    3.86929604    0.18898230
    1    1.24562935   -8.77489081   -6.60604176    -44.81081876    1.10213729   -9.75818820     16.49072545    0.13995281    0.94716286
    1    0.10650038   -9.48738969   -7.37300424      6.89547580   -8.02163032   -2.79682221      1.48761185   -8.24598070   10.07695258
    8   -1.08160570    4.56936894   -4.92970971     13.81320793    5.56379673    8.59695636     -0.12716335   -3.72190351    1.65604556
    1   -1.27843123    5.51749294   -4.81848751     -0.92357398   -0.99137396    0.24924050     10.46002685  -33.84764349   14.87183864
    1   -1.89743468    4.26355080   -5.32553861    -15.23492288   -2.60719817  -10.95627946      6.42298889    9.50699395   13.43628423
    8    4.82782348    2.41839242   -7.88823184     53.83525273   24.93935281    2.31960477     -1.38332918    2.53371293    5.55531985
    1    5.29204529    1.56947278   -7.87623703      5.37904431  -10.96484860   -1.13642183     -6.45709033    5.29318649   -2.54288674
    1    3.98286514    2.12950048   -8.09013723    -55.49652766  -15.58934887   -6.78096522     14.56524414   15.04126650   25.70828458
    8    2.71308243    5.82935762   -3.19809920     -1.01475331   25.98406896  -12.80838815      2.28247452    3.53903803    2.41735503
    1    3.13648992    5.07228764   -3.59762884      5.53025122  -22.14534304   -7.83651117     10.17307621   -0.58176652   -2.47858642
    1    2.82373601    6.46564777   -3.96697525     -1.25592268   -6.39604167   18.68136621      4.15858500   -2.95868676   -1.32154830
    8   -3.05646505   -3.24074207   -7.43624586     11.63500079  -11.23387576   -1.35604522     -3.87700218   -1.27628159   -3.31795786
    1   -3.95944032   -3.50748033   -7.75228794      8.25448618   11.35146838    4.81882853     -4.06395601   19.16210487    5.91847979
    1   -3.11808646   -2.30305661   -7.18596313    -12.55421901    4.20411049   -1.50677464      3.22887824   15.60354427    8.03498964
    8   10.04306087    0.95381513    5.62581994     -0.04136912    5.24859615  -10.39597515      1.65119540    0.29954137   -0.66917057
    1    9.08993997    1.10067651    5.48379462     -5.55539964    3.27124643    4.72278172     31.74088188   -5.30016357   20.29156353
    1   10.07449074    0.02689945    5.29641465      3.99490906   -0.83448525    6.92198144      7.21119941   17.12179014    8.99727493
    8    7.01249579    8.87526703   -8.36794733     30.85006801  -16.11652718    5.24506567      1.74812366    7.42344243   -0.97688090
    1    6.82244187    9.77170451   -7.96145044     20.47506556  -24.56963503    7.06084005     -9.24860809  -22.39823949    2.06067879
    1    7.88539178    8.48647460   -7.94508273    -52.72548927   32.30076023  -10.48228678     20.68652676   11.18840439   34.90407612
    8   -3.29390817   -3.74483041    2.82212154    -36.75028878   41.78356323   -0.18491138     -1.27039405   -0.08305963   -0.88076677
    1   -3.62925743   -2.84295882    3.14995312      8.77401893  -28.28641081  -14.14665746     -2.30057918   15.77915972   -9.03236197
    1   -2.49027039   -3.72043304    3.32202419     30.74459968   -7.31681964   10.68416166     30.16826710    0.56956285   12.53880986
    8   -7.60835628  -10.15819287   -8.64685832    -64.61730427   14.88727330  -20.24355390     -0.94671736   -3.48145567    0.13852799
    1   -8.23427113   -9.65703305   -9.28211973     12.44375144  -28.49137795   27.07728350    -44.32519087    9.74526681  -11.59577061
    1   -6.85823551   -9.64818640   -8.86848408     43.67629722    9.31412186   -7.59320133      7.36210789    6.41584048   30.05882261
    8    8.87837014    3.95055271    1.52200776     20.94100419  -35.95707684   49.23153538     -2.99129569   -1.73138433   -1.61892293
    1    8.35501267    4.19714768    2.34655995     18.96613020   -6.30733847  -23.35968450      3.30867405   27.97904057   -4.94136569
    1    9.52163274    3.20885283    1.88209542    -41.17205520   41.55950161  -20.12717015      9.77123052  -12.02312964   25.00585718
    8   -8.28761189   -3.89628183    7.28326677     26.74557430   40.64019676   14.21140766      1.68869776   -2.44333307   -0.17916381