 BEGIN_INFO
   #
   # This is a XCRYSDEN-Structure-File
   #
   # aimed for Visualization of geometry
   #
   # Launch as: xcrysden --xsf HICOLM.XSF
   #
   #
 END_INFO
 # estrutura final
CRYSTAL
PRIMVEC
      22.51100073       0.00000000       0.00000000
       0.00000000      22.51100073       0.00000000
       0.00000000       0.00000000      22.51100073
PRIMCOORD
  927    1
    8    2.45874768   -8.82131632   -8.69610620  -2853.95581619-8981.77543501 2787.65420495      3.94092921    3.92489650    3.95569102
    1    2.53979296   -9.63849204   -9.17996828   2711.77467151 3054.33553976-4717.99926294     15.84391100   15.85813138   15.53531726
    1    2.03715084   -9.07712692   -7.88043704    139.17671977 5924.14335591 1933.32207628     15.73706235   15.97732991   15.81157380
    8   -4.00712832   -9.71815451   -6.79096432  ****************************-1582.44537334      3.86492810    3.35909046    3.94383053
    1   -3.56086728   10.44410643   -6.70414685  83715.8954430817939.8167440811156.12398041     19.23448806   16.49540192   16.19800561
    1   -4.92213402   -9.95578163   -6.91244530  ****************************-9566.77954292     13.55279737   24.32136108   15.33731828
    8   -5.33134720   -2.94920220   10.13510668   8168.75079688 1858.21828576-5187.20413224      3.96976703    3.95325867    3.93482732
    1   -4.51664016   -2.56198316   10.44309808  -2399.45297595  488.01829124 5759.67904574     15.63163382   15.75154067   15.97045932
    1   -5.17325628   -3.11325216    9.20959984  -5772.39068035-2343.93760094 -574.37251571     15.49156431   15.63393729   15.70742106
    8    2.08252868    5.98057068   -6.87420332  -6008.52825127-7751.97576969 -258.37281823      3.93267507    3.92811330    3.94772089
    1    2.31488508    5.05624096   -6.88448516   6036.24597377 1510.21996280  146.29029195     15.98199774   15.79400614   15.73735414
    1    1.12958184    5.97903108   -6.89317916    -21.72614145 6230.40576782  100.32455372     15.73037486   15.99006230   15.73544469
    8    5.76024280   -0.69744320   -5.89752332   5412.59851496 1829.21113999**************      3.96255737    3.95318127    3.90963196
    1    5.19568884    0.00045084   -5.57700004  -2408.51928743-3875.42700810 4392.43044326     15.63125896   15.57034077   15.91368297
    1    6.24829596   -0.29110928   -6.60829616   3024.43522452-5382.98506931-1000.57501578     15.85687418   15.50773644   15.68972672
    8    2.88756068    5.24825868    7.50489880  -6620.73961989  892.75755627 7242.32812582      3.93107630    3.95073265    3.96734426
    1    2.17239296    4.65697984    7.72260172   1664.46447855-3756.29570785-4720.20428234     15.80039820   15.57528164   15.53525133
    1    2.81423396    5.94615296    8.14995584   4959.62747917 2863.85757938-2524.03390220     15.93724299   15.85020928   15.62645581
    8    4.17554280    8.76438168   -3.53399120   6252.29517083 -841.52142892 7608.98185603      3.96475166    3.94619536    3.96830114
    1    4.14991672    9.22443696   -2.69958816  -5172.20160685 3046.03806648-1829.75988452     15.51651019   15.85776155   15.65529595
    1    4.94415984    8.20490684   -3.46528828  -1085.99539888-2201.19728092-5773.78166091     15.68618311   15.63987749   15.49152661
    8    6.60267488   -0.00022332    9.16271100  ******************************************     10.90379853    3.87029545    6.10484398
    1    7.08444784    0.23865772    8.37573684  -2989.97188652-4443.37669267-3256.37803968     15.60711806   15.54676439   15.59605569
    1    6.93141284    0.60064884    9.82559996  -3815.18043975-2591.64583302 4273.21383654     15.57285141   15.62365785   15.90871790
    8   -5.36916532   -9.30847620   -2.42398732  -3396.57443242 5131.15355760-7673.63277619      3.93951067    3.96182245    3.92832005
    1   -4.91723204   -9.09813816   -3.23639904   5058.08729745-3053.02226317 2014.09121132     15.94134813   15.60447572   15.81492815
    1   -6.22717416   -8.90627116   -2.52661003  -1655.41290470-2073.63909670 5657.49356561     15.66252109   15.64514911   15.96624295
    8   -9.75849249   -0.40779132   -1.44186232  ******************************************      3.40063444    3.84604202    3.87635582
    1   -9.96291590   -1.33871881   -1.43439448  ****************************28496.05949639     23.71754109   13.98702087   16.92414070
    1   10.44699836    0.00012765   -1.77477712  15837.1426803379787.55020456 -874.32625118     16.40549189   19.07042256   15.69608404
    8    0.53319151   -9.02047934    6.26613132  ******************************************   6058.41417267 3041.87441163 2507.91026506
    1    0.38261972   -9.89258205    6.62491984  -4231.00283069  837.72295503  -32.82063497     15.55155668   15.76671721   15.72991505
    1    1.47654884   -8.96634703    6.17550884   -399.40681121 4022.89794609-1586.32116244     15.71431146   15.90206763   15.66390703
    8   -4.45222568    7.83422768    0.42511992  ****************************90863.69234274      3.23602219    3.85933392    4.18611341
    1   -4.64180992    7.00261384   -0.00024616   6116.99855321-1043.13585189 -666.62616940     15.98535138   15.68794721   15.70358771
    1   -5.31256204    8.19181496    0.62621196   2684.71644150 5025.47668133 2524.82755429     15.84278531   15.94001488   15.83614975
    8    2.42189168   -5.76575220    4.23109868  -1445.88690393 3136.61709026-9202.58038483      3.94461410    3.95660367    3.92431935
    1    1.71206884   -5.22157016    3.90169908  -2460.92203209  268.60196284 5731.63988069     15.62906669   15.74243181   15.96932758
    1    2.95641696   -5.93852216    3.46108696   3914.35047124-3399.16759243 3474.07412050     15.89385022   15.59009981   15.87556433
    8   -4.14014432    8.79595080   -9.41152632  -7251.61116867 5846.10960522-3158.83839481      3.92942453    3.96369153    3.94013199
    1   -4.86646604    9.15484984   -8.90937804   2120.03272298-2867.61991615 5119.72445650     15.81932544   15.61218565   15.94390981
    1   -4.27933704    9.13363484  -10.29190816   5130.36744552-2974.25383598-1960.96146539     15.94434511   15.60775986   15.64982939
    8   -1.36387620   -9.02411020    8.89325068   4868.98742689 8512.75393616-1080.88398241      3.96113386    3.97066444    3.94556930
    1   -0.43273404   -8.89558328    8.73519184    873.38228786-6201.35120468   52.84339993     15.76754272   15.47377764   15.73347512
    1   -1.71728028   -8.13932816    8.92114496  -5738.73497866-2308.13863991 1022.59502992     15.49298043   15.63543446   15.77374352
    8    4.19173768    3.42529468   -2.80645320   -726.96659892-4804.69359332 8572.62565748      3.94649546    3.93582748    3.97082409
    1    3.73926784    2.60534784   -2.62917428  -1742.66400875 -341.77683252-5996.08511535     15.65890587   15.71708282   15.48226959
    1    4.55792196    3.67378696   -1.96223816   2458.76798970 5142.45869699-2574.66446298     15.83338488   15.94483299   15.62435476
    8    3.04608480    3.39416868   -8.94958332   4094.22285571-8946.35445114  329.11173966      3.95910877    3.92499029    3.94925793
    1    3.77265884    3.10056008   -8.40698504    425.87822807 5703.93282498 2517.33205519     15.74896475   15.96817195   15.83582764
    1    2.80745872    2.62109596   -9.45343816  -4520.85024161 3241.16857503-2848.34366973     15.54351960   15.86588985   15.61298315
    8    8.54550168   -6.09830920   -4.57683332  -2845.99334091 9448.90711557  351.46797443      3.94095169    3.97311535    3.94931693
    1    7.65732484   -5.75430528   -4.54091816  -2270.44037827-5840.16206743  -95.31987056     15.63699419   15.48875552   15.72731550
    1    9.09484096   -5.31937816   -4.57168616   5117.21570048-3604.54894783 -253.80254689     15.94377973   15.58159092   15.72073151
    8   -9.31859532    5.10326880   10.32804394  ************** 5204.26589127**************      3.83645513    3.96225174    4.40470386
    1  -10.25876850    5.19324185   10.45634511  **************  980.36437208**************     14.81106709   15.77033620    8.96182528
    1   -8.96563868    5.08641474   -9.78670545  64424.80398872-6193.54334332**************     18.42849237   15.47192324   15.25743035
    8    0.07975580   -2.79818420    7.94996168  10040.2795390926285.92357258**************      3.97466162    4.01716350    3.91436979
    1    1.01622084   -2.96613728    8.00782996  -1168.72142471-6117.23099795  985.63445677     15.68274806   15.47726806   15.77220069
    1    0.02311272   -1.85984816    7.79237484  -6261.39032769 -414.06608525 -128.89410931     15.47128123   15.71408632   15.72592334
    8    8.65992680   -0.01051720   -6.23967232   5962.15750226 7886.94189765 -652.23195497      3.96399272    3.96902769    3.94669095
    1    9.60914584   -0.00390028   -6.32607616     52.55462023-6264.59110751  -32.79307238     15.73346096   15.47115245   15.72991429
    1    8.42433472    0.91270584   -6.21375316  -6057.73141040-1542.99770675  543.02456830     15.47974180   15.66720767   15.75382429
    8    7.26057580    7.23369080    4.46992280   7172.20545657 5035.50108191 4592.77417242      3.96715750    3.96156857    3.96041051
    1    7.31775472    8.17445384    4.61214984  -5475.77979019  788.55502287-2960.61988784     15.50391022   15.76402118   15.60834585
    1    8.05450584    6.89120272    4.87104384  -1683.27576087-5817.96782080-1620.70857105     15.66138225   15.48970205   15.66397882
    8    3.73987680    9.49197380    0.19320880   1981.2507309429016.7078535611915.24926266      3.95357635    4.02430957    3.97957004
    1    3.01734396   10.08273396   -0.00028516   4036.09060909 4681.17866182 -772.60762967     15.89892547   15.92570461   15.69918168
    1    3.31567796    8.65367584    0.35375996   5555.14237005-2678.61654443  933.84400979     15.96201342   15.62001964   15.77006373
    8   -0.64381432    8.58773980   -1.71090020   -220.76609803 4325.7932934010700.75450430      3.94781658    3.95971244    3.97639018
    1    0.00071584    8.30959772   -1.06611516  -1727.38610780-5984.41480610 -869.10509534     15.65955304   15.48278642   15.69518831
    1   -0.54497228    9.53526384   -1.74178528  -4525.16202398  335.04086478-4343.87931457     15.54338324   15.74517608   15.55090625
    8    3.47541703   -0.00130371   10.25744850   3581.73832108 6089.57009636-6402.69756573      3.95776988    3.96433393    3.93156182
    1    4.23454284    0.54164984   10.45103008    -12.55099123-2023.07456731 5929.49238061     15.73074131   15.64724763   15.97752803
    1    3.29991372    0.16782384    9.33600484  -4828.02050679-3940.96314570  132.27407674     15.53078083   15.56761612   15.73677910
    8    3.62753168   -9.57616820    9.09034868    973.36943615 2799.94072004-9378.05207844      3.95094385    3.95572285    3.92386026
    1    4.40727696   -9.24006016    8.65727896   3207.71251547 -534.69607217 5335.73211852     15.86449724   15.70907088   15.95288479
    1    2.96576472   -9.57867516    8.40440696  -4180.82686083-2265.81018941 4040.33644657     15.55763564   15.63717339   15.89908158
    8    5.57798260    0.01403480    8.84330448  **************29003.80499288**************     -2.97427517    4.02427749    1.78515841
    1    5.33688572   -0.90548604    8.77389484  -6024.70764730 1600.68695354 -173.02804641     15.48107213   15.79775133   15.72409404
    1    6.53000284    0.00006608    8.88794296    363.19305308 6188.04185301 1806.00230198     15.74635883   15.98826132   15.80627853
    8   -1.24027920    4.17234968   -6.95116632   4261.14691064-6759.88288630-5397.37295101      3.95954602    3.93071045    3.93427508
    1   -0.30416404    4.08529596   -7.10810404   1036.20449283 5186.04126056 3325.37790892     15.77431393   15.94666717   15.86939157
    1   -1.62033528    3.42373896   -7.40237704  -5701.67750965 1806.25702920 1805.13592774     15.49446945   15.80629348   15.80625192
    8    5.40350780   -8.57770332   -2.83488020   6097.91824186-2018.20278791 7492.22139794      3.96434900    3.94311759    3.96799589
    1    5.90510284   -7.96527504   -2.30395416  -2328.99091541 4784.62366392-3303.71530858     15.63456327   15.92995775   15.59409006
    1    5.62635084   -9.43148716   -2.47448828  -3766.02623680-2757.85646768-4186.42803572     15.57488848   15.61675774   15.55743575
    8   -9.16916260    2.26616572   -0.00324520  **************************** 9462.74552669      5.10832135    7.34383086    3.97315352
    1   -9.88114216    1.63249596    0.00052384  -3712.82783876 4080.48135903  -35.36048825     15.57707368   15.90075753   15.72981033
    1   -8.38203904    1.72863396   -0.00223916   4004.90235667 5347.45489598  -56.31959466     15.89761266   15.95337166   15.72893803
    8   -2.46063520    5.57451168    0.87161480   2999.58577579  381.33521831 9589.98055470      3.95624307    3.94939486    3.97348307
    1   -1.56168704    5.33927784    1.08394272   1105.04413087-1308.82545827-6052.79722757     15.77716114   15.67692765   15.47994268
    1   -2.83677028    5.82801096    1.70993284  -5487.28226024 1196.24864941-2815.31689914     15.50342362   15.78094809   15.61437420
    8   -5.62301320    0.45409668    0.05042280   7035.91774026************** 7167.40548967      3.96680415    3.88911384    3.96714811
    1   -4.75894704    0.05403796    0.00735572   1486.49073086 3721.75775633-4788.69862331     15.79300957   15.88583539   15.53240874
    1   -6.05172028    0.00000196    0.77049184  -5145.30179072 3440.19203122 -853.41564288     15.51760064   15.87414238   15.69583490
    8   -7.55552320    2.59580380   -4.02671020   3127.54629647 8248.45196007 4540.52609581      3.95657760    3.96997289    3.96027378
    1   -6.74408504    3.07474872   -4.17063528   1677.74937387-4168.32036018-4393.88674829     15.80094280   15.55819832   15.54883174
    1   -7.99921528    3.09339272   -3.34549116  -4786.64455042-4077.27837428 -143.38905873     15.53252454   15.56198028   15.72532441
    8   -7.03398132    3.68904268    6.09199068  -4333.21445285-2484.98225555-8458.88708037      3.93705842    3.94189457    3.92626300
    1   -7.88064516    3.97637196    5.76172096   -823.80391834 3465.24566111 5115.82828845     15.69706065   15.87521289   15.94377339
    1   -6.70787304    3.10475984    5.41321396   5168.42528548 -992.61805298 3325.95185046     15.94595729   15.69004754   15.86942497
    8    4.92320180    7.56474568    6.95757168   3692.65594752-6745.71338494-6109.01653228      3.95805870    3.93074693    3.93241350
    1    5.01611384    7.61762208    6.01044484  -2494.67729933 5711.17616394   68.68847969     15.62766452   15.96848509   15.73412872
    1    5.27086984    6.70449796    7.17571908  -1193.51334544 1037.51588467 6037.21062208     15.68170537   15.77436813   15.98202394
    8   -6.04683020   -9.34052432    0.40370368   5833.70620847-5654.47962543-5523.81416270      3.96366007    3.93360333    3.93394502
    1   -5.21153016   -9.11089592    0.00613196   -424.06816107 5736.92431391 2413.03827759     15.71366537   15.96953913   15.83149398
    1   -6.18590328  -10.24619316    0.14125196  -5414.90490599  -80.20448560 3110.62263142     15.50638768   15.72794214   15.86046363
    8   -4.28377120    0.23557880    6.04162568  34214.2077518249843.46675792**************      4.03790649    4.07879586    3.84314770
    1   -3.45584816    0.00016872    5.63219696   -999.10538508-6027.41520342 1432.23398948     15.68978802   15.48098297   15.79075102
    1   -4.33644228    1.18054384    5.92855496  -5529.42643043   60.17118995 2954.87792059     15.50166321   15.73377618   15.85398048
    8   -0.78661232    0.70227368    5.55926168    958.92850130-9651.94252237-1326.13459334      3.95090612    3.92314288    3.94492716
    1   -0.86055516    0.20762296    4.74789484  -1205.32372190 5274.96298906-3107.05584033     15.68121461   15.95036707   15.60222808
    1   -0.59042416    0.03997696    6.21605196    185.67937267 4420.46232529 4415.92351308     15.73898888   15.91487661   15.91468876
    8    3.40312680    8.71180568    9.68998268   2709.91681849-6575.94718987-6779.05060653      3.95548798    3.93119079    3.93066007
    1    3.94278784    7.93515796    9.80865108    566.53728923 1319.18877083 6069.21289501     15.75480329   15.78606892   15.98335213
    1    3.18980584    8.70465196    8.76105484  -3288.45479080 5252.03658066  708.94245536     15.59469333   15.94941872   15.76072066
    8   -0.80510820    5.23884068    0.00020868   1779.53736783************** -712.24150790      3.95305282    3.92187724    3.94653364
    1   -1.53385528    4.62451896   -0.00024816  -4046.26998466 4780.01192108  -11.76576125     15.56321903   15.92980659   15.73078813
    1   -0.03270904    4.68035996    0.00062284   3658.14615168 5054.19543409    5.12288416     15.88321351   15.94119529   15.73148907
    8    5.31213268   -0.00752832    5.62235480    840.00667443  154.67740853 9882.26378798      3.95059443    3.94880163    3.97424800
    1    4.61173272   -0.00253616    6.26881772  -4258.84335998  -91.44166125-4594.96904402     15.55442920   15.72747928   15.54047297
    1    6.10883796    0.00290984    6.14550472   3453.14574908  -63.84650602-5243.80717307     15.87466742   15.72862489   15.51352892
    8   -1.03017632   -6.31126520    4.66146468  -9398.55985008 2287.15643670-1964.59820339      3.92380632    3.95438141    3.94325689
    1   -1.49752904   -5.51221404    4.88865496   5154.46885526 2242.31422903 2731.12425690     15.94535901   15.82440530   15.84470860
    1   -1.68036804   -6.83632828    4.20319684   4217.73556014-4533.81649066 -786.04305384     15.90645292   15.54296898   15.69862898
    8    3.92999780   -8.99376220    4.52051668   9101.93732039 3771.15433543  581.92170687      3.97220649    3.95826130    3.94991960
    1    4.76174084   -9.45286228    4.44344184  -3056.09317802-5408.35470862 -855.29890382     15.60437152   15.50670603   15.69575642
    1    4.18050172   -8.08568304    4.66601984  -6052.37007633 1634.34387306  285.51878339     15.47995816   15.79914119   15.74313166
    8   -0.42920732   -2.84702620   -7.69368032  -5248.62656634 8789.89099395  486.35172258      3.93466621    3.97139237    3.94966973
    1    0.00004596   -1.99619916   -7.67434316   5586.68703137-2777.70951516    4.39705864     15.96327641   15.61592230   15.73145858
    1   -1.35874016   -2.63626228   -7.69845916  -1396.97531592-6106.36825946 -121.88657353     15.67326376   15.47769258   15.72621354
    8  -10.21411672    2.88367880   -8.23442020  ************** 8884.6710240816524.54947319      3.32786217    3.97249611    3.99440928
    1   10.24789847    2.23267383   -7.79254919  ******************************************     20.84721047    3.32634888   20.27641061
    1   10.20007319    3.62652063   -8.35067293  ******************************************     20.46538806   27.75426715   10.45411968
    8   -9.05675731    0.58017168    2.40338968    -10.53355020-9816.43575138 -754.49932231      3.94837034    3.92271298    3.94642277
    1   -9.80955316   -0.00359304    2.37210184  -3829.62055061 4908.75266878  464.83243350     15.57220334   15.93515688   15.75058693
    1   -8.30767104   -0.00600704    2.34205084   3852.79677903 4890.97649493  315.83206315     15.89130007   15.93441819   15.74439532
    8   -4.71946020    5.42088868    7.56559280   7739.32288567-5521.66598519 2656.16547464      3.96864369    3.93395205    3.95534495
    1   -4.61708528    4.47697984    7.48174484  -5708.23518715 -399.68500813-2562.54087392     15.49422900   15.71467868   15.62486737
    1   -3.90157116    5.70715908    7.96263584  -2021.56969257 5928.72177775  -91.17461923     15.64732515   15.97747924   15.72749661
    8    9.44274680   -3.39057220    5.76169868   4215.39993539 8909.56808938  457.61439287      3.95942339    3.97170284    3.94959417
    1    9.31790272   -2.65121216    5.17325884  -4038.05994083-3380.33767091-3403.92834028     15.56360301   15.59091212   15.58993430
    1   10.06797384   -3.06971728    6.40565796   -175.88850841-5533.57077642 2938.45639937     15.72397605   15.50150347   15.85329179
    8    7.79230668   -3.14234832    7.94687468  -8660.97742299-1822.81137820-4236.91066744      3.92573461    3.94362752    3.93731090
    1    7.35798196   -3.98349316    7.83597096   4749.82887105-2838.15053371 2862.77637347     15.92856648   15.61339023   15.85018468
    1    7.19207696   -2.51852004    7.54806596   3907.42007415 4655.14738767 1388.80718330     15.89357661   15.92463425   15.78896218
    8    3.56777680   -6.38795232   -6.61460332   9180.51164643-3180.42924900-1540.43005522      3.97241402    3.94007674    3.94436749
    1    4.38263084   -5.90651904   -6.50157404  -3225.91059521 5037.00022428 1833.86138017     15.59731154   15.94045085   15.80743057
    1    3.84797072   -7.24847416   -6.91370716  -5962.59467088-1859.11780375 -287.95737538     15.48366473   15.65407429   15.71931604
    8    5.11517868    0.09768980   -4.66375920   -962.70777121 8139.1253850419819.25231256      3.94587645    3.96969041    4.00024503
    1    6.04669896    0.00013884   -4.48688528   1055.32636577-1059.25473916-6094.62747667     15.77509848   15.68729239   15.47820649
    1    4.73546672    0.27628284   -3.80793316  -5734.08253316  368.35088210-2582.64565805     15.49317754   15.74657129   15.62403577
    8    2.37031280    5.77977968    4.63560768   9213.59205564-3594.88695456  -93.93617517      3.97250027    3.93899275    3.94815134
    1    2.64696672    4.87866784    4.77683984  -5974.81667632-1715.31353542  808.61473518     15.48315929   15.66004489   15.76485574
    1    3.18516184    6.24969996    4.48158384  -3207.57329274 5325.30032260 -702.82856547     15.59807577   15.95242121   15.70208926
    8   -6.27238632   -0.90349820   -3.16492420  -8425.78429472 4212.59061383 2857.90893446      3.92635296    3.95941826    3.95587410
    1   -7.13461604   -1.30356828   -3.09441716   2364.32296465-5468.40038119-1930.19188054     15.82947046   15.50417115   15.65111540
    1   -6.41479592    0.00003296   -2.89682716   6072.16610868 1242.58340741 -916.64367964     15.98345699   15.78288149   15.69320868
    8    4.38298780   -2.57126020   -7.98841332   4339.15090712 8839.68321433  766.71587888      3.95974760    3.97152026    3.95040261
    1    3.98815172   -1.74626416   -7.72007216  -5528.60677032-2880.64512723  761.73721917     15.50170990   15.61166014   15.76290669
    1    5.29158196   -2.34485828   -8.16651816   1187.66897233-5967.03390264-1536.13977512     15.78059059   15.48350400   15.66749055
    8   -8.48502332   -8.80034920   -6.47408132  -1133.84563145 9705.19901153-1259.44537960      3.94543110    3.97378578    3.94510254
    1   -9.26159116   -8.33487328   -6.77200216  -3075.57991931-5433.41599697 -504.01253882     15.60355841   15.50564451   15.71034242
    1   -7.84407204   -8.11002928   -6.32855804   4214.34693294-4275.83111048 1771.52926363     15.90628093   15.55371541   15.80484197
    8   -2.75791932   -6.98259420   -2.43521820  -3891.79450085 8151.54378170 3952.83564849      3.93821625    3.96972152    3.95873747
    1   -2.32026404   -6.15900316   -2.23850216   5390.81019117-2335.91905818-2170.72774798     15.95513371   15.63427370   15.64113578
    1   -3.65932416   -6.83555028   -2.16258116  -1495.44263838-5817.59407260-1776.55673213     15.66917687   15.48969490   15.65750378
    8    3.81326468   -5.95664020   -9.34052420  -7546.82958852 5955.40198129 2211.29110268      3.92865334    3.96397748    3.95418247
    1    2.88192396   -6.15849828   -9.35859416   1299.44566512-5830.92093118-1883.33324030     15.78523918   15.48912426   15.65306130
    1    3.84659808   -5.04694716   -9.05789716   6248.41137313 -117.50838490 -339.06482807     15.99076712   15.72639495   15.71719353
    8    7.93439268   -0.00028920    0.68882668    775.09077113 6245.13654168-8157.21077042      3.95042464    3.96473592    3.92705542
    1    8.59118396    0.61928784    0.38341196   3356.16675103 -990.20352565 5170.75767213     15.87066288   15.69015199   15.94602283
    1    7.27834284   -0.00039828   -0.00258904  -3404.98698183-4164.10407749 3180.53776631     15.58986480   15.55833762   15.86336657
    8    7.56286780  -10.14051471   -0.00718815   3989.12596329**************38318.79371884      3.96116677    3.27434348    4.05411316
    1    8.41820160   10.44813867    0.08067832  ******************************************     28.39977240   21.38230688   11.32848918
    1    6.98274059   10.29504883    0.49614471  ****************************66253.54067537      2.89991687   20.15294489   18.45361047
    8    0.00706780    7.76361180    0.48221268   7221.02233760 3797.68757548-5521.94992018      3.96728760    3.95833252    3.93395136
    1   -0.00057828    8.58526996   -0.00082904  -5829.88198608 1151.67925675 2030.99675044     15.48917884   15.77909584   15.81561842
    1    0.86922984    7.39881872    0.30302496  -1367.89374736-4967.51436431 3570.38581303     15.67447273   15.52498689   15.87954400
    8   -7.49815520    5.59327968    8.02027780   5342.17620603  391.97337636 8302.97471631      3.96237096    3.94942229    3.97011570
    1   -7.21754216    4.86693172    8.56998684  -2870.78072913-4043.90734618-3863.71557190     15.61207634   15.56336012   15.57084839
    1   -7.14422116    6.36306496    8.45697272  -2489.79175985 3663.47892592-4444.29774896     15.62789382   15.88339389   15.54673706
    8    7.85421968   -0.00991320    3.43741568   -876.48452276 9921.22975053 -500.59496050      3.94610408    3.97435046    3.94708756
    1    8.53786796    0.63875072    3.29460284   4266.08171405-4564.45653423 -362.05838223     15.90843221   15.54173661   15.71624130
    1    7.05933984    0.50854772    3.52604184  -3340.75861324-5242.58143408  823.05301235     15.59255028   15.51357429   15.76545392
    8   -5.94509632   -8.77217632    6.61215568   -780.56893513-9750.79183568 -873.19080053      3.94635375    3.92288439    3.94611208
    1   -5.62750704   -9.32343904    5.90242284   2247.25273676 5033.37811633-2921.14108927     15.82462510   15.94033433   15.60995050
    1   -6.35492416   -9.38602304    7.21524696  -1477.91039893 4708.45748808 3801.49337544     15.66990236   15.92683584   15.88917595
    8    0.00049768   -4.08014332    8.81182980  -7220.61684483**************17748.33785231      3.92950618    3.89265294    3.99483210
    1   -0.15943504   -4.95346016    9.15855972   4164.36499752-2357.19966759-3978.48521085     15.90422243   15.63337301   15.56603688
    1   -0.57699604   -3.51985204    9.32279384   2030.46076532 4966.30449383-3187.32280788     15.81559888   15.93753198   15.59889123
    8   -9.22989420   -0.52538420    7.33871468   4273.93135225 8676.20071402  238.26610157      3.95957680    3.97109239    3.94902089
    1   -9.02646016   -0.00019228    6.56976184  -2478.25369926-4435.14187108-3732.91075759     15.62837074   15.54711261   15.57626946
    1   -8.91084416   -0.00037828    8.06749096  -1883.20897456-4423.81094819 4019.27632823     15.65307924   15.54758448   15.89816805
    8    8.69779368    4.17823624   -0.00051184  ******************************************      8.88435992    6.40269255    4.67757603
    1    7.92700984    4.73890096    0.00624172    595.14018064 1353.22045333-6091.98915274     15.75599142   15.78747351   15.47829352
    1    8.75870596    3.85919384    0.89559884   5108.21855228-3285.64473255-1506.85818249     15.94340908   15.59483172   15.66870396
    8    7.58086732   -0.55988028   -1.60347032  ******************************************      3.30904714    2.15562462    3.84365976
    1    8.07044896   -1.37733504   -1.57962904   5255.78511712 3167.35567553 1017.65479601     15.94958251   15.86283815   15.77354547
    1    6.68179884   -0.83405792   -1.76145916  -1845.62629473 5961.27552606   92.81626552     15.65461642   15.97888557   15.73513166
    8    0.77466068    0.01429868   -6.34544732   -276.98185243-9788.66241772-1117.97621797      3.94767239    3.92278498    3.94547178
    1    0.00567584   -0.54822904   -6.37167711  -3658.31332961 4952.14238345  854.25701880     15.57932891   15.93696112   15.76675778
    1    1.50455596   -0.58724804   -6.46330616   4015.76931556 4765.61945404  355.47844357     15.89807007   15.92921319   15.74604126
    8    3.95305280   -6.04756132    7.07365580   8035.25801129-2947.99646213 4901.68140519      3.96941669    3.94068507    3.96121949
    1    4.29458972   -6.93320416    7.16013384  -4722.67665123-2170.27713002-3498.58456980     15.53516703   15.64115876   15.58599831
    1    4.56831684   -5.51380804    7.56873084  -3314.08612801 5119.34284411-1392.09307643     15.59365978   15.94385879   15.67346915
    8    0.09040280   -5.32141832   -0.45915420   6903.26549110-6847.09642197 1622.86608827      3.96645710    3.93048413    3.95264282
    1    1.00512684   -5.30810004   -0.72677716   -866.72086395 5585.09877779-2682.75734269     15.69528204   15.96321905   15.61986422
    1   -0.00260528   -6.14984604    0.00294796  -6036.70199866 1256.21467867 1063.82345982     15.48057888   15.78344323   15.77545586
    8   -8.16615120    9.95060968   -8.02320920   1262.74643883-2881.55812098 9372.86067805      3.95170047    3.94085864    3.97291621
    1   -8.82733628    9.63733584   -7.41232128  -4408.91211871  723.92573093-4401.12939548     15.54819151   15.76134271   15.54851687
    1   -7.35601204    9.91972896   -7.52195728   3149.03624101 2174.58022814-4962.36904387     15.86203987   15.82158104   15.52520799
    8    6.89828180   -1.62259332    0.64740968   9158.53215672 -342.18159494-3845.38834866      3.97235664    3.94750181    3.93833728
    1    7.62811284   -1.02190604    0.77014196  -3331.74101033 3289.06556580 4212.60355530     15.59291636   15.86786435   15.90621642
    1    7.21738172   -2.24359816   -0.00143216  -5455.48102699-3022.46799458  243.55294588     15.50472248   15.60576189   15.74139041
    8   10.04444680    0.54140380  -10.05092220  42662.5193926072914.2860361778542.00206515      4.05897604    4.13952326    4.15054538