 BEGIN_INFO
   #
   # This is a XCRYSDEN-Structure-File
   #
   # aimed for Visualization of geometry
   #
   # Launch as: xcrysden --xsf HICOLM.XSF
   #
   #
 END_INFO
 # estrutura final
CRYSTAL
PRIMVEC
      21.00000000       0.00000000       0.00000000
       0.00000000      21.00000000       0.00000000
       0.00000000       0.00000000      21.00000000
PRIMCOORD
  927    1
    8    2.45873919   -8.82133294   -8.69610728  -2776.74299276-8706.60557161 2706.75691786     -0.74240534   -2.32810474    0.72368408
    1    2.53983134   -9.63844666   -9.18008665   2633.74845444 2956.58308520-4577.58737645     11.17959243   12.54902048  -19.43159784
    1    2.03713505   -9.07702097   -7.88041526    140.67024775 5743.71716079 1870.81441134      0.59569051   24.38112342    7.94371618
    8   -4.00713824   -9.71817102   -6.79096937  -3822.41168516-8762.81711470 -277.89508574     -1.02204042   -2.34304615   -0.07433198
    1   -3.56077283   10.44414984   -6.70415172   5289.75263260 2887.11114163  656.16080553     22.45546064   12.25320360    2.78576447
    1   -4.92218401   -9.95567629   -6.91247214  -1469.04406257 5866.81706838 -373.70917241     -6.23866700   24.90338457   -1.58689809
    8   -5.33134117   -2.94920454   10.13509512   7891.47820546 1798.55186798-5012.77595854      2.11014346    0.48099063   -1.34037506
    1   -4.51670946   -2.56199174   10.44320014  -2318.40296899  471.55402778 5565.04403415     -9.83957362    2.00162439   23.62349849
    1   -5.17339638   -3.11332033    9.20956890  -5575.76976187-2265.61750540 -555.44687129    -23.66800202   -9.61823663   -2.35960122
    8    2.08251600    5.98055568   -6.87420834  -5835.80424252-7528.71741634 -253.77287436     -1.56053300   -2.01305260   -0.06776396
    1    2.31499359    5.05625392   -6.88450089   5860.89497416 1467.31009818  143.07828352     24.87958315    6.22667511    0.60706910
    1    1.12956258    5.97914369   -6.89319585    -19.24299271 6049.22430319   99.01469674     -0.08340168   25.67791749    0.42009953
    8    5.76024522   -0.69744565   -5.89754773   5429.24706340 1522.66243491**************      1.41726096    0.44853888   -3.86573315
    1    5.19561937    0.00035051   -5.57692661  -2327.18800294-3745.99302130 4249.23045029     -9.87292587  -15.89350969   18.02056951
    1    6.24834063   -0.29124121   -6.60833601   2924.38692671-5203.30744150 -964.98065246     12.40868536  -22.07629465   -4.09633606
    8    2.88754722    5.24825518    7.50490359  -6400.08492314  863.69977324 7003.11380564     -1.71135592    0.23094946    1.87260151
    1    2.17240901    4.65688194    7.72248367   1608.46882805-3631.42715452-4563.23702339      6.82621919  -15.41619538  -19.36987524
    1    2.81431936    5.94619425    8.14988386   4793.90009422 2767.68563322-2441.71138849     20.34932665   11.74992981  -10.36341762
    8    4.17554626    8.76437587   -3.53398593   6028.70357970 -828.22974728 7345.69662286      1.61206002   -0.22134457    1.96411875
    1    4.14978949    9.22448198   -2.69964543  -4984.36765475 2939.00667710-1765.67719643    -21.15831168   12.47621032   -7.49334321
    1    4.94411823    8.20484188   -3.46542819  -1046.90618751-2118.56090420-5567.17185817     -4.44219514   -8.99491350  -23.63170992
    8    6.60615717   -0.00026778    9.16378763  ******************************************    674.53844389   -7.79616462  209.22268996
    1    7.08437097    0.23855263    8.37565468  -1650.84370125-2481.18308461-1832.37300071    -10.45069389  -15.57863400  -11.43066422
    1    6.93131988    0.60057961    9.82566401  -2127.73108760-1452.16515666 2396.24331762    -13.36507320   -9.09435913   14.98309052
    8   -5.36917450   -9.30847417   -2.42400219  -3285.45614712 4977.50686082-7435.65826671     -0.87858146    1.33093377   -1.98822088
    1   -4.91714438   -9.09822140   -3.23637548   4897.43944021-2958.43756305 1953.73273007     20.79018952  -12.55816767    8.29162009
    1   -6.22722795   -8.90633380   -2.52650972  -1605.50711620-2012.30061288 5479.23719208     -6.81669255   -8.54095823   23.25822718
    8   -9.75850924   -0.40780280   -1.44187017  -8946.29462382-4972.00277428-2302.60108796     -2.38770575   -1.32520120   -0.61746977
    1   -9.96281773   -1.33876309   -1.43436677   5523.47610034-1197.16667706 2169.06879860     23.44966302   -5.08484881    9.20868523
    1   10.44703541    0.00022569   -1.77478555   2590.82881482 5451.26918363  480.55722566     10.99792579   23.14427079    2.03912437
    8    0.78145220   -8.89584366    6.36880894  ******************************************  25027.9810439712576.1696049210352.77000266
    1    0.38312615   -9.89275844    6.62485782  37916.78543785**************-8698.35736030    128.67124337  -44.18497386  -15.24861995
    1    1.47655575   -8.96700694    6.17566782  -3511.51411603************** 9961.07959824      2.40964345 -172.26060079   41.28020576
    8   -4.45259267    7.83417769    0.42523609  ****************************90292.15186403    -70.98770234   -8.85700937   23.71815872
    1   -4.64170104    7.00257317   -0.00027893   5598.57423547 -952.22540958 -607.91810357     24.71589393   -4.21331050   -2.68930611
    1   -5.31252485    8.19190115    0.62624588   2457.64472544 4599.81338839 2312.81407922     10.84522559   20.30768402   10.21135307
    8    2.42188508   -5.76575283    4.23108177  -1400.39098647 3039.83843688-8918.39962292     -0.37454829    0.81269102   -2.38472420
    1    1.71199808   -5.22158332    3.90180091  -2384.84907522  259.93508729 5554.46562113    -10.12434495    1.10544775   23.57733171
    1    2.95648056   -5.93861270    3.46114128   3792.55222083-3293.27251714 3367.06284617     16.10043691  -13.97932539   14.29114628
    8   -4.14015862    8.79595375   -9.41153519  -7020.05904167 5649.69803903-3059.96217510     -1.87712432    1.51069015   -0.81826108
    1   -4.86644027    9.15477065   -8.90928906   2055.24715383-2772.33450090 4958.45718214      8.72267612  -11.76740295   21.04930669
    1   -4.27924793    9.13355343  -10.29196848   4964.06408080-2874.07813909-1905.32968579     21.07168331  -12.19964348   -8.08859771
    8   -1.36387461   -9.02410380    8.89324453   4667.84716408 8169.95575658-1077.01315801      1.24803397    2.18480172   -0.28764171
    1   -0.43273462   -8.89573197    8.73517424    843.80895154-5970.14128524   58.16815687      3.58348688  -25.34353578    0.24384347
    1   -1.71741944   -8.13939540    8.92114751  -5532.74415059-2223.28216349  988.57776363    -23.48455184   -9.43671799    4.19547317
    8    4.19173204    3.42528364   -2.80644664   -703.10232102-4644.72402747 8286.26248844     -0.18798182   -1.24192012    2.21569305
    1    3.73921234    2.60532181   -2.62931914  -1683.99725801 -329.63476560-5795.16992069     -7.14900800   -1.40107688  -24.59940486
    1    4.55795474    3.67387620   -1.96231116   2376.45933232 4970.18937153-2488.97031253     10.08880034   21.09803728  -10.56360497
    8    3.04608541    3.39415211   -8.94958756   3953.23552280-8669.04154436  327.62910464      1.05712640   -2.31801206    0.08754460
    1    3.77264900    3.10066129   -8.40695093    412.99930216 5525.75376973 2437.58531295      1.75482641   23.45518256   10.34852956
    1    2.80734478    2.62114538   -9.45351702  -4373.84168664 3142.38623098-2756.84509422    -18.56717595   13.33701935  -11.70361685
    8    8.54549320   -6.09830149   -4.57683754  -2765.73333000 9127.50706302  343.63430345     -0.73946183    2.44059545    0.09182711
    1    7.65725831   -5.75444672   -4.54093905  -2189.94655414-5637.79645616  -94.21434179     -9.29812441  -23.93115979   -0.39948151
    1    9.09492962   -5.31947278   -4.57171045   4943.65879216-3481.52690578 -251.09698534     20.98642068  -14.77686776   -1.06513196
    8   -9.31860655    5.10326484   10.32805029  -4780.02043379  609.71707114 8233.09717375     -1.27809659    0.16294408    2.20148726
    1  -10.25880499    5.19322214   10.45619853   -825.66019888  -39.69332174-5992.99609812     -3.50679615   -0.16756623  -25.43956758
    1   -8.96553713    5.08638359   -9.78677269   5598.49699903 -570.47241958-2237.27156414     23.76546338   -2.42086490   -9.49507649
    8    0.07976429   -2.79815403    7.94993967   9743.2786372726007.07211491**************      2.59525624    6.84657340   -3.39589569
    1    1.01617754   -2.96628421    8.00783157  -1121.17982117-5870.29838727  942.15747988     -4.76784483  -24.98388619    4.00988696
    1    0.02296271   -1.85987559    7.79235326  -6010.39168923 -394.64354826 -124.94360775    -25.58180365   -1.67627779   -0.53225596
    8    8.65992988   -0.01051159   -6.23967787   5742.68736051 7600.00394316 -633.83268217      1.53580486    2.03183425   -0.16865357
    1    9.60912813   -0.00405034   -6.32609568     51.59753893-6033.10899071  -30.93264985      0.22026563  -25.61039617   -0.13167761
    1    8.42418898    0.91265469   -6.21376062  -5835.38134194-1484.36360441  522.75929807    -24.77029421   -6.30020705    2.21918324
    8    7.26058046    7.23369266    4.46992407   6907.03531872 4849.49556560 4425.03744184      1.84687059    1.29673715    1.18311959
    1    7.31762118    8.17445155    4.61206896  -5274.51530241  759.93106363-2850.17989649    -22.38974190    3.22732958  -12.09784878
    1    8.05445169    6.89106203    4.87099096  -1622.12383729-5603.14107996-1563.39244665     -6.88426365  -23.78561030   -6.63535667
    8    3.73987474    9.49200731    0.19322017   2259.2861053528728.1052664912112.79084714      0.54626710    7.51043983    3.16943283
    1    3.01741090   10.08281315   -0.00032029   3961.72591728 4523.93185494 -750.80856663     16.76302725   19.15027353   -3.17806399
    1    3.31577652    8.65360036    0.35376070   5418.93685356-2612.33278418  906.34163555     22.93340882  -11.05334462    3.84447067
    8   -0.64381937    8.58774072   -1.71089079   -448.52333290 4133.3498494210515.31867658     -0.08312539    1.11230131    2.77955355
    1    0.00066081    8.30945340   -1.06615225  -1663.31482175-5771.73021647 -839.49429152     -7.05704436  -24.49274017   -3.55925236
    1   -0.54508593    9.53525175   -1.74189521  -4361.62234405  309.02035680-4191.84253275    -18.50982678    1.31474429  -17.78699852
    8    3.47864002    0.00523894   10.21798195  ******************************************    534.10135537 1084.52933562-6544.50044736
    1    4.23452518    0.54163595   10.45099905    999.72383931 9940.05672486**************      0.88034401    9.41135353  -25.27599348
    1    3.29990686    0.16781492    9.33598409  22466.2636699618750.38028266-1188.21468794     21.69348707   17.99008329   -1.29924068
    8    3.62752829   -9.57616925    9.09033153    942.29664911 2727.64151341-9095.18553359      0.25202925    0.72931211   -2.43203701
    1    4.40732558   -9.24009027    8.65737264   3103.47495961 -517.90259279 5174.72167430     13.17561846   -2.19768636   21.96534267
    1    2.96565777   -9.57874178    8.40447324  -4052.79131219-2194.59450061 3915.87834880    -17.20499907   -9.31721711   16.62230779
    8    5.57450727    0.01406726    8.84221496  **************23144.26485268**************   -671.35177852    7.04822410 -209.87045966
    1    5.33673109   -0.90546902    8.77387208  -8172.47133400 2137.77633384 -249.93023150    -28.13967761    7.42981656   -0.82106686
    1    6.52999179    0.00018643    8.88796264    391.83627762 8356.23144770 1909.79007195      1.54681095   28.84661388    7.65043411
    8   -1.24027833    4.17233601   -6.95117818   4115.53683406-6544.27257714-5245.19588544      1.10275405   -1.75126299   -1.40074430
    1   -0.30416112    4.08538641   -7.10805281   1004.22640388 5025.95930989 3225.36636929      4.26517062   21.33483568   13.68835225
    1   -1.62047428    3.42375810   -7.40235786  -5524.62126691 1750.43229602 1752.46662530    -23.45166592    7.42870766    7.43668855
    8    5.40351107   -8.57771068   -2.83487509   5886.04080531-1946.79176501 7226.60058894      1.57384969   -0.52063006    1.93238547
    1    5.90503506   -7.96519353   -2.30404238  -2248.81569126 4614.91057599-3187.56078812     -9.54478728   19.59110731  -13.53019216
    1    5.62625289   -9.43156395   -2.47459491  -3634.42485457-2661.69643494-4038.29847878    -15.42686328  -11.29994930  -17.14139974
    8   -9.16858077    2.26787706   -0.00323747  **************************** 9089.82386579    114.35680634  334.41728157    2.44166402
    1   -9.88124416    1.63256859    0.00050428  -4854.86802032 5360.91529442  -36.52568209    -17.09326681   18.83888526   -0.14301660
    1   -8.38196924    1.72873391   -0.00225919   4988.02007204 6762.92933887  -62.31149036     18.08017128   24.29044167   -0.23960786
    8   -2.46063605    5.57450752    0.87162268   2842.00704494  377.46306606 9269.81977139      0.76806423    0.09961213    2.47452634
    1   -1.56168282    5.33923153    1.08379701   1064.78924127-1261.24766048-5834.21473750      4.51989013   -5.35694948  -24.76464734
    1   -2.83690416    5.82801710    1.70985494  -5289.07827487 1153.02139411-2713.73249725    -22.45287805    4.89380823  -11.51800679
    8   -5.62300865    0.45406183    0.05042750   6899.41827290************** 6959.78202960      1.82760285   -5.90356654    1.85567111
    1   -4.75893472    0.05409727    0.00723630   1432.43355230 3586.33717200-4613.46278219      6.09607689   15.25613643  -19.62725180
    1   -6.05184720    0.00005534    0.77045506  -4956.39269958 3314.59100777 -821.41201378    -21.08605198   14.10045912   -3.49558013
    8   -7.55552388    2.59580990   -4.02670901   3009.29855717 7944.18068274 4370.55097128      0.80454872    2.12417988    1.16863438
    1   -6.74406879    3.07464260   -4.17074611   1616.58089254-4015.17119688-4230.73915222      6.86452028  -17.04280356  -17.95943457
    1   -7.99933436    3.09328857   -3.34551296  -4609.87702252-3924.85278123 -136.57245191    -19.56946464  -16.65916122   -0.57800737
    8   -7.03399178    3.68903469    6.09197473  -4210.86993160-2417.20979097-8220.87513249     -1.12606753   -0.64632112   -2.19808085
    1   -7.88068138    3.97642629    5.76181022   -798.04113745 3366.76974258 4971.39831654     -3.38932366   14.29246602   21.10159754
    1   -6.70778270    3.10472004    5.41326534   5020.23297936 -962.39393071 3231.84249243     21.31153230   -4.08607267   13.71748434
    8    4.92320191    7.56473202    6.95755888   3577.20222408-6547.44261707-5920.83567120      0.95652536   -1.75078086   -1.58317290
    1    5.01604239    7.61772362    6.01042744  -2416.74506948 5540.59906317   67.24775612    -10.25895332   23.51940342    0.28347685
    1    5.27082583    6.70450092    7.17582741  -1156.05330583 1007.12086266 5852.38436478     -4.90659710    4.27368360   24.84281520
    8   -6.04682725   -9.34053650    0.40369167   5648.22911864-5474.97045536-5347.79585116      1.51029535   -1.46402233   -1.42999232
    1   -5.21155794   -9.11079409    0.00616387   -411.04925894 5554.36961458 2336.89678906     -1.74281393   23.57820747    9.91936116
    1   -6.18603613  -10.24621373    0.14129853  -5242.37605214  -78.66185120 3009.86475709    -22.25328355   -0.33528773   12.77593111
    8   -4.28373045    0.23564040    6.04156739  33846.5250496249476.66430756**************      8.91502558   13.00407920  -10.49822215
    1   -3.45588793    0.00002371    5.63220801   -949.98918039-5728.53634701 1361.20769398     -4.07050139  -24.56371271    5.83642905
    1   -4.33657685    1.18052628    5.92859792  -5255.47234480   58.13222339 2808.76178590    -22.53459447    0.25044942   12.04444975
    8   -0.78661573    0.70225616    5.55925523    927.04374886-9361.05801139-1289.36357675      0.24826906   -2.50333218   -0.34457959
    1   -0.86059944    0.20771537    4.74781042  -1168.50968404 5116.20355920-3011.62780694     -4.96025169   21.71673020  -12.78632892
    1   -0.59043906    0.04005134    6.21612625    180.95430611 4288.47530343 4283.24357535      0.76792225   18.20230874   18.18247261
    8    3.40312562    8.71179222    9.68996899   2631.59162580-6395.68787001-6571.13796002      0.70379339   -1.70998412   -1.75712708
    1    3.94278093    7.93516691    9.80876010    547.64612014 1282.37339074 5884.45796215      2.32542128    5.44094827   24.97950342
    1    3.18971757    8.70474395    8.76105097  -3189.31309514 5097.46042520  687.79818716    -13.53932088   21.63754009    2.91772494
    8   -0.80511063    5.23882253    0.00020305   1768.31911870-9834.33234564 -712.85866597      0.46470316   -2.62806837   -0.18649610
    1   -1.53395940    4.62460087   -0.00026723  -3923.00551436 4634.04273139  -11.23411483    -16.65390457   19.67041551   -0.04680849
    1   -0.03265079    4.68044765    0.00060411   3546.20388592 4899.32011878    5.38551855     15.05631591   20.79777261    0.02256713
    8    5.31212911   -0.00753280    5.62236307    810.73969142  149.66756993 9532.40805306      0.21661202    0.03988126    2.54872528
    1    4.61162458   -0.00255692    6.26870254  -4107.34200619  -88.32988520-4431.05237673    -17.43653686   -0.37384868  -18.80920746
    1    6.10889151    0.00288966    6.14537589   3330.59563823  -62.12314789-5057.94468729     14.13924875   -0.26249435  -21.46900985
    8   -1.03019349   -6.31126696    4.66145738  -9111.50188556 2217.93212911-1904.64913576     -2.43629866    0.59323226   -0.50922711
    1   -1.49743923   -5.51218568    4.88869364   4996.87208369 2172.74349480 2647.42300367     21.21036989    9.22458889   11.23818765
    1   -1.68029800   -6.83644270    4.20316141   4088.37979352-4396.07938474 -762.06459527     17.35412725  -18.66246199   -3.23548097
    8    3.93000504   -8.99376202    4.52051278   8777.80574876 3631.34869895  565.47085678      2.34717718    0.97112494    0.15123456
    1    4.76165782   -9.45299447    4.44340491  -2949.20586840-5211.78780658 -830.50578104    -12.51738205  -22.12479007   -3.52579236
    1    4.18035597   -8.08566766    4.66600697  -5835.93612057 1577.07812061  274.37215886    -24.77192304    6.69564623    1.16432664
    8   -0.42921897   -2.84701936   -7.69368434  -5106.68241374 8494.10880994  486.84949475     -1.35948886    2.27205358    0.12805603
    1    0.00014448   -1.99627648   -7.67436191   5395.69294686-2685.65622071    4.36872891     22.90622000  -11.40211831    0.01815450
    1   -1.35878836   -2.63640947   -7.69848059  -1348.29541886-5901.08355813 -118.74886513     -5.72477766  -25.04926374   -0.50413658
    8  -10.21413352    2.88367504   -8.23442138  -9134.77808326  761.78788412 2634.13027446     -2.44254286    0.20360494    0.70440990
    1   10.24797804    2.23257759   -7.79256869   4687.56557250-3831.52001705   59.85637227     19.89650613  -16.26581501    0.25532846
    1   10.20014773    3.62656304   -8.35074798   4444.00835483 3079.21408488-2709.36863537     18.86310047   13.07317096  -11.50101309
    8   -9.05675956    0.58015476    2.40338411   1838.39785375-8914.78532528 -647.63153086      0.48081261   -2.38709155   -0.17377817
    1   -9.80965428   -0.00350821    2.37209301  -3781.10466117 4769.00647876  459.90227246    -16.04530074   20.24107453    1.95129530
    1   -8.30760871   -0.00592275    2.34203871   3733.73149795 4743.38285621  308.13313679     15.85125982   20.13351748    1.30722431
    8   -4.71945475    5.42087669    7.56559149   7477.99001159-5334.28847399 2553.65089595      1.99955392   -1.42639727    0.68277135
    1   -4.61722403    4.47695264    7.48167223  -5514.16196916 -383.52694805-2469.94829383    -23.40676108   -1.63012196  -10.48439134
    1   -3.90163253    5.70726464    7.96261522  -1953.82607712 5725.26983451  -81.95989871     -8.29266999   24.30361437   -0.34666420
    8    9.44274755   -3.39056521    5.76169462   4056.03307829 8588.47146573  442.53059581      1.08456802    2.29655862    0.11837276
    1    9.31779929   -2.65130196    5.17316860  -3891.00589079-3260.07689067-3279.80890267    -16.51680461  -13.83717454  -13.92359082
    1   10.06795134   -3.06985208    6.40570070   -167.93588187-5332.87812275 2833.67769463     -0.71170866  -22.63700537   12.02959059
    8    7.79229048   -3.14235542    7.94686435  -8409.51292506-1771.96013706-4112.89003727     -2.24860952   -0.47377265   -1.09991876
    1    7.35806339   -3.98357196    7.83601253   4611.73565255-2754.00724722 2780.20258800     19.57559718  -11.69203104   11.80181968
    1    7.19214057   -2.51844059    7.54807636   3794.15931234 4520.38361710 1348.81115920     16.10399266   19.18965266    5.72530822
    8    3.56778416   -6.38796121   -6.61461004   8869.36884674-3075.29746862-1486.84627924      2.37167522   -0.82230904   -0.39770123
    1    4.38254414   -5.90643206   -6.50155444  -3117.71460592 4866.71794922 1770.98688074    -13.23229185   20.65927520    7.51830066
    1    3.84782660   -7.24853209   -6.91373206  -5760.31639462-1794.76582171 -278.65809494    -24.45159300   -7.61980878   -1.18227975
    8    5.11517266    0.09769586   -4.66373767  -1140.01275344 8109.9106559719484.16406651     -0.27128687    2.12620867    5.14931927
    1    6.04670215    0.00009779   -4.48703182   1015.18378647-1018.41733945-5862.39499424      4.31687707   -4.32842612  -24.91738812
    1    4.73532776    0.27627173   -3.80800616  -5515.13436384  354.20927375-2484.43587229    -23.43881376    1.50590298  -10.55970013
    8    2.37032020    5.77977023    4.63560288   8900.85841209-3471.46116964  -91.93043299      2.37981581   -0.92843198   -0.02465722
    1    2.64682237    4.87861292    4.77683803  -5771.06890724-1656.42991871  781.83568601    -24.49649011   -7.03276732    3.31939161
    1    3.18507558    6.24979296    4.48155022  -3097.95788450 5143.01346756 -678.25452844    -13.14852971   21.83348317   -2.87963419
    8   -6.27240219   -0.90349740   -3.16492520  -8156.81696845 4077.00021934 2765.92419099     -2.18118935    1.09027557    0.73952975
    1   -7.13458514   -1.30370221   -3.09447666   2291.14286401-5291.88336790-1867.74246320      9.72434887  -22.46405924   -7.92828115
    1   -6.41468705    0.00004018   -2.89686530   5878.05345651 1201.91777294 -887.00939348     24.95123015    5.10317236   -3.76458108
    8    4.38298874   -2.57125331   -7.98841698   4184.32919570 8520.74781892  742.80966134      1.11876876    2.27853670    0.19856272
    1    3.98801702   -1.74634348   -7.72007503  -5327.94936826-2777.97961497  733.02996447    -22.61640705  -11.79134816    3.11321221
    1    5.29158790   -2.34500219   -8.16656924   1142.80345020-5751.16482835-1480.96784754      4.85367455  -24.41285019   -6.28641499
    8   -8.48502949   -8.80034113   -6.47408767  -1097.08659498 9377.88725691-1208.16748644     -0.29337541    2.50759659   -0.32322149
    1   -9.26167463   -8.33500623   -6.77203171  -2968.16294252-5247.51758764 -491.73222380    -12.60086468  -22.27402138   -2.08702903
    1   -7.84400245   -8.11013790   -6.32853975   4067.69994475-4129.61854137 1710.78632300     17.26808301  -17.52844492    7.26305625
    8   -2.75792915   -6.98258820   -2.43521777  -3757.01257977 7871.07648733 3814.75114472     -1.00463942    2.10470795    1.02000528
    1   -2.32016973   -6.15907110   -2.23856660   5202.75797671-2256.15699928-2094.74691672     22.08597234   -9.57572235   -8.89131113
    1   -3.65937442   -6.83569127   -2.16263731  -1443.03013536-5616.26535038-1714.04358394     -6.12705264  -23.83999485   -7.27549114
    8    3.81324997   -5.95663710   -9.34052606  -7310.20326314 5756.82451866 2144.73662309     -1.95463355    1.53930538    0.57350655
    1    2.88193231   -6.15863971   -9.35865263   1255.35198863-5637.04180967-1820.56128995      5.32657582  -23.92887901   -7.72808126
    1    3.84671055   -5.04696847   -9.05792314   6042.72500017 -114.66569594 -328.33466070     25.65086971   -0.48480214   -1.39306931
    8    7.93438903   -0.00028571    0.68881117    772.36403498 6077.30142734-7889.35910448      0.20211143    1.61905233   -2.11080494
    1    8.59123577    0.61924811    0.38350193   3249.86673911 -959.30131541 5004.41145401     13.79777123   -4.07261488   21.24349758
    1    7.27825227   -0.00050473   -0.00254098  -3295.11075991-4029.29107902 3078.74785843    -13.98624115  -17.10679227   13.06892282
    8    7.56286735  -10.14055002   -0.00718650   3203.35023198************** 4734.73328676      0.85060541   -6.07784909    1.26867782
    1    8.41823047   10.44821023    0.08058757   2449.51406957 4317.19353686-3410.53141881     10.42038203   18.36437880  -14.50802559
    1    6.98262623   10.29510486    0.49609541  -4662.81800694 3567.50771174-1355.93358371    -19.83575952   15.17428794   -5.76731643
    8    0.00707256    7.76361204    0.48220069   6975.19752159 3675.22647883-5334.37849409      1.86496658    0.98296376   -1.42667570
    1   -0.00071956    8.58527506   -0.00080527  -5629.59525325 1105.05916172 1963.91046660    -23.89749100    4.69134275    8.33311737
    1    0.86918227    7.39869550    0.30308108  -1320.92157950-4800.30811891 3449.02232612     -5.60451073  -20.37799458   14.64020012
    8   -7.49815295    5.59327553    8.02028397   5139.73382669  379.02218809 7998.80992932      1.37439078    0.10119489    2.13887016
    1   -7.21762107    4.86682816    8.56988704  -2759.97895766-3896.68460949-3719.37229177    -11.71485887  -16.54160760  -15.78735809
    1   -7.14429209    6.36312281    8.45686081  -2393.64481998 3527.41298687-4281.12553506    -10.15990114   14.97573504  -18.17206832
    8    7.85421384   -0.00990487    3.43741033   -845.18854346 9575.54962499 -485.68557047     -0.22633291    2.55986409   -0.12960679
    1    8.53793866    0.63863622    3.29457643   4118.82662982-4400.27726430 -348.14389130     17.48549800  -18.67854433   -1.47871548
    1    7.05925085    0.50841887    3.52604030  -3222.20875505-5058.95700243  794.78380328    -13.67906251  -21.47367256    3.37389108
    8   -5.94510206   -8.77219397    6.61214983   -775.91340524-9455.55563616 -854.89173390     -0.20730715   -2.52839086   -0.22866826
    1   -5.62747832   -9.32335173    5.90234236   2190.29461451 4881.66457156-2831.09713105      9.29698381   20.72126203  -12.01846490
    1   -6.35497398   -9.38594257    7.21530841  -1422.08517897 4567.76570789 3693.88814641     -6.03827750   19.38892672   15.68113802
    8    0.00048343   -4.08017640    8.81184866  -6998.15848126**************17520.14657353     -1.86882551   -5.56433547    4.62929698
    1   -0.15936642   -4.95352886    9.15845692   4013.00024907-2284.25263233-3851.23025345     17.07134750   -9.71866089  -16.38538622
    1   -0.57697249   -3.51976631    9.32270749   1947.63405238 4795.60395706-3093.80599786      8.28429721   20.40438677  -13.15730815
    8   -9.22989333   -0.52537754    7.33871033   4129.44230005 8358.85561512  258.26343033      1.10482700    2.23606460    0.06568612
    1   -9.02653099   -0.00030409    6.56966463  -2388.23076872-4276.79380331-3600.94256106    -10.13904497  -18.15196840  -15.28272770
    1   -8.91090251   -0.00048981    8.06755627  -1814.49302575-4263.57517781 3870.45822309     -7.70333419  -18.09713758   16.43189198
    8    8.70027339    4.17946704   -0.00014914  ******************************************    482.33860544  239.92734034   71.41259318
    1    7.92700410    4.73891141    0.00609083    730.64996348 1550.82653431-6951.75796505      2.66458386    5.90469031  -26.51889785
    1    8.75879797    3.85910376    0.89554742   5861.84553233-3740.80156997-1706.91048570     22.28714944  -14.28916416   -6.53195747
    8    7.58053827   -0.56079454   -1.60352817  ******************************************    -63.42276480 -177.84522024  -10.38092828
    1    8.07053762   -1.37728908   -1.57962717   4192.21229191 2531.03479966  810.76022537     20.34927085   12.27675933    3.93853262
    1    6.68174224   -0.83395493   -1.76147610  -1470.86662267 4759.84608011   74.07116164     -7.14064425   23.08673793    0.35912353
    8    0.77465564    0.01428098   -6.34545348   -266.93013974-9496.66437309-1084.30892800     -0.07165703   -2.53904677   -0.29043052
    1    0.00557974   -0.54814345   -6.37167794  -3548.38265637 4802.89539300  830.10550969    -15.06493994   20.38793023    3.52194215
    1    1.50462181   -0.58716639   -6.46331749   3895.89565055 4622.26536422  345.27699209     16.53708023   19.61989198    1.46662100
    8    3.95305862   -6.04756991    7.07365747   7752.88697593-2846.68854568 4727.74330932      2.07303708   -0.76129150    1.26408755
    1    4.29447180   -6.93326852    7.16004156  -4557.31497301-2090.74877364-3374.01955927    -19.34358823   -8.87632546  -14.32157618
    1    4.56822840   -5.51371946    7.56868279  -3197.23870860 4939.57037248-1342.06078688    -13.57055693   20.96956681   -5.69599633
    8    0.09040715   -5.32143208   -0.45915685   6675.01272029-6619.12840928 1568.38059544      1.78483600   -1.76990556    0.41942929
    1    1.00508975   -5.30800146   -0.72685246   -838.91191125 5399.47724615-2593.02414197     -3.55878167   22.91993092  -11.00823513
    1   -0.00275105   -6.14983859    0.00295139  -5836.63198512 1213.62084272 1028.70271847    -24.77590888    5.15048340    4.36710060
    8   -8.16615431    9.95060115   -8.02320161   1225.85839889-2805.44584606 9039.25241711      0.32769452   -0.75010355    2.41700696
    1   -8.82744764    9.63733234   -7.41243247  -4255.61064515  705.41873062-4248.43790352    -18.06610633    2.99296098  -18.03241296
    1   -7.35596495    9.91975580   -7.52208028   3033.49265698 2104.08838155-4790.46090078     12.87981708    8.93105126  -20.33368114
    8    6.89828914   -1.62259845    0.64739991   8861.29991504 -337.87278073-3696.60153149      2.36756009   -0.08934322   -0.99181774
    1    7.62802394   -1.02185579    0.77021159  -3217.98470342 3180.65770254 4070.33066928    -13.66084108   13.49719351   17.27710829
    1    7.21724825   -2.24368054   -0.00144587  -5271.16288278-2917.23564235  236.51937311    -22.37613118  -12.38798946    1.00128570
    8   10.04443776    0.54138720  -10.05093070  -3098.78925963-8599.95615115-2695.15573902     -0.82848991   -2.29968180   -0.72054447