 BEGIN_INFO
   #
   # This is a XCRYSDEN-Structure-File
   #
   # aimed for Visualization of geometry
   #
   # Launch as: xcrysden --xsf HICOLM.XSF
   #
   #
 END_INFO
 # estrutura final
CRYSTAL
PRIMVEC
      20.47093048       0.00000000       0.00000000
       0.00000000      20.47093048       0.00000000
       0.00000000       0.00000000      20.47093048
PRIMCOORD
  927    1
    8    4.46224901    3.07300276    1.95460538    -21.37573574  -34.06119974  -54.23425149      0.57385062   -0.42843312    0.70061859
    1    4.91216892    2.96232201    2.74726603     26.60180273   -6.90837377   47.97338012     -9.51715050   -1.33035294  -22.82604600
    1    4.29120252    3.99645507    2.00750495     -7.68637712   38.31698062    3.49948549      3.66996160  -13.67775429   -1.47569605
    8    9.19272594    7.29586829    0.80062054      1.54899005   44.94720105  -32.19731272      0.97023364   -1.56947297    1.57054599
    1    8.45682339    6.81246703    1.09767392    -28.89696847  -25.57962450   16.39364603     -1.78955727   -0.40905462   -0.09863367
    1    9.93451561    6.85113635    1.17093978     26.05077667  -22.32795909   17.96557224    -11.82869242    6.36489884  -10.16153989
    8   10.02392071    9.99977304    6.91050045   -100.81247296  159.64676847  -53.95531772      1.89549989   -4.87932282    2.76199180
    1   10.02492977   -9.69083604    6.00309256     -0.12312281 -112.50973763  131.31717838     -9.91656380   62.20555871  -59.91186031
    1    9.15935697  -10.04835802    7.54231864    105.83616673  -48.03442358  -78.09089265    -17.50867620   17.16014736    7.31895845
    8   -1.03262181    6.59956380   -9.16859557    -16.51902038   11.42437570  -17.70426521      0.97358735    0.97213228   -0.19500531
    1   -1.66652965    6.78384485   -8.44338698     -0.65585653   -1.47002595    3.04933409      7.30225623   -2.15222613  -13.44025877
    1   -0.31331790    6.17907307   -8.68769502     13.34084478   -9.01530516   10.80622571      9.20242410   -9.32548932    1.87710014
    8   -9.10226552   -8.91797772   10.07583230    -45.38197270   73.51734995  -16.87531477      0.85707086    2.70421733    0.71389917
    1   -8.64115434   -8.21340609    9.47393013    -14.41688264  -34.65691979   25.37863381    -23.91483814  -29.61823103   29.92641753
    1  -10.00246432   -8.38551287  -10.17467997     58.49542634  -40.96657782  -12.04951468     55.57854911  -26.27890946  -16.48590886
    8    4.76367608   -1.40338311    7.18086550     61.59456614   31.74949629   -6.46479610     -2.80546598   -1.68376205    0.97087221
    1    5.50045779   -0.64859784    7.24549318    -45.07114986  -37.23399977   -0.74682989     38.73931496   48.86891700    9.69077064
    1    5.30943692   -2.06539678    6.65530165    -15.53305254    7.12117923    8.72167548     12.73667583  -25.75351480  -15.88461353
    8    3.23227497    9.78277539    7.09468138     74.65403448  -77.66954377  -30.39651641      0.41764578   -1.10619303   -2.47142359
    1    2.50397405   10.08244748    6.69800176    -74.86463175   26.12948763  -46.71998657     -7.43615396   -0.25324421   -0.58013818
    1    3.17323347  -10.16518662    7.79481304     -0.00448586   52.81118515   78.63951163     -1.14239245    6.82083936    8.81681061
    8    3.59320724    7.69455010   -5.34059848     43.48495835   18.87656534  -28.77775186      1.08016292    1.30109447   -0.12885373
    1    3.77614119    8.66488311   -5.09004430     -6.22658128  -27.91565995   -7.03743900     -3.05977377   -0.93775694    0.97321634
    1    4.26333609    7.57276537   -6.14030517    -35.71578191    5.07545471   38.46131636     -8.18685971   -0.83769454    7.52753524
    8   -2.49181747   -6.02061762    9.17152840     69.70878468   84.76052166   93.42831348     -1.42258635    1.57960600   -1.53908617
    1   -2.43046189   -5.00949950    9.69105274     -8.08600860 -114.88290000  -59.23082971     -3.22101324    7.49070760   -5.43443652
    1   -1.68217909   -6.50765715    9.68636591    -57.97674309   32.15624332  -36.86809392     29.78602953  -19.49339649   15.99396678
    8   -2.19508781    1.57147244   -7.08127691     60.36206493 -135.30508075   -2.19074616      2.70972648   -0.18328842   -0.12765727
    1   -2.19658860    2.22922439   -6.57297507     -1.77465381   96.69191250   85.85984012      5.94200374   11.48233768  -15.90288830
    1   -2.64867443    1.92760674   -7.72076374    -57.73035780   35.22270493  -84.72301800    -18.14373606   13.64144290   -0.15447794
    8    1.35133466    5.07941977    4.28587671     -3.17095352   18.92979650  -35.47278158     -0.88373656    0.56426072   -3.48432367
    1    1.51236141    5.76631869    3.54019564     -2.78839208  -20.14175287   26.30336983     -4.99837721  -29.86054543   32.86555158
    1    0.83757386    4.44275988    3.73208479      4.54736668    3.38106876    7.34359900      8.51631061   10.55468955   10.84804589
    8    7.10589762   -5.96401412   -5.07946893     35.40530504  -72.82712122  -24.39571513      0.84915501   -0.87085971   -1.39142540
    1    7.96873700   -6.06132058   -5.66263953    -46.42257259   12.73404266   30.66104572     -3.54097749   20.67663977   -1.92327863
    1    6.92107275   -6.98727702   -4.87590518      6.88787007   63.35929745   -9.13490395    -13.98447992    7.09186183    6.91975134
    8   -8.80917535    8.59995138    3.16182619    -35.56618174  -86.52088483   52.99092256      0.88489959    1.80328295    0.45686482
    1   -8.82600650    7.69513361    2.61796165     -0.84916802   54.91207996   34.04996715     -0.03673847  -16.01420546   -9.66575701
    1   -9.20071408    8.23147884    4.12679209     32.81883331   33.24604408  -86.14705766     -6.65764682   -7.22911186   16.98706936
    8   -2.14744905   -8.31770366    2.93217100     -6.58677414   -1.70838816   -4.80677463      2.14621009   -0.29520429    1.43772633
    1   -2.75006286   -8.89470323    2.41202393      3.62196868   -2.23327735    1.69810490    -11.01566047  -20.57687002  -11.41598126
    1   -2.64573916   -7.47186766    2.82419389      5.26423520    0.85664592    3.33709543    -11.33450385   27.91044160   -0.37778221
    8   -1.58260347    4.25915130    6.53799018     22.54695574    9.12113254   28.48099976      0.59567452   -0.95789908   -0.18329546
    1   -1.28990972    4.76795884    7.38854293    -12.98996598  -20.20442724  -33.71434120     -1.16408459    3.93939921    7.93152473
    1   -0.77585875    3.68165093    6.40937077    -11.75200192    7.80259213    1.75268797    -15.01864427    9.32536871    3.41035209
    8    2.61906659    1.05019794    1.70521475    -10.44878414  -12.81607774    3.93228126      0.72786768    1.81135522   -3.16652169
    1    3.25467151    1.77328156    1.78664848     10.44518325   11.55904742   -0.46630484    -23.84719736  -32.67656560   -0.68407378
    1    2.53371252    0.98184373    0.73118583      0.99559809    0.34174527   -3.82831894      6.39245375   -1.31476932   51.49985979
    8    2.15374822    1.98417774   -7.67991229     45.19312051  -25.17503639  -58.50030674      0.21214492    1.10381514    0.84440265
    1    1.57533438    1.34478658   -7.31542086    -25.02904547  -24.37813957   15.54780179      2.21758316   -0.23295006   -3.97596972
    1    1.96994182    2.68392735   -7.13992323    -17.12181234   50.77793776   40.98404979      7.07854313    7.75537208   -3.90878108
    8    5.96260211    0.15172854   -7.78183182    -10.41063197   -8.48847638   13.65842532     -2.13911344    1.78492288    0.81953964
    1    6.51157827   -0.45244292   -8.30480284     11.73356367   -2.53363972  -12.45655906     35.66019060  -25.22611595  -37.68830490
    1    5.50745305   -0.57500728   -7.27878960     -0.82669792   11.16647927    0.24123593    -20.03632778  -15.37218127   22.36028524
    8   -0.41153535   -7.19697436   -9.99944642    -15.51657471   -5.63980422  -11.98304322     -5.61628382    4.55573013   -0.39683374
    1    0.39129588   -6.79872670   -9.64080030     14.42483416    7.86599444    7.84723369     34.82639079   18.71857499   13.37419840
    1   -0.06968640   -8.08715388   10.20954917     -1.27826272    2.22386242    1.92577935     17.32956488  -45.55244556  -12.84275190
    8   -3.97326114   -0.25702563   -2.27399119    -66.49555409   66.89074175   24.34935889     -1.53370587    0.90274616   -0.39991921
    1   -3.91762130   -0.83368200   -2.94835027      1.54145070  -50.96313094  -61.12349976     -0.20154084   -9.64117363  -18.09211847
    1   -3.22412156   -0.48146364   -1.83730003     62.41540838  -17.93049033   38.04427114     16.45729867   -3.65062597   11.49301061
    8    7.06173093   -9.50362455   -6.77430259    179.37002903  153.87727341  105.13132449     -0.40289516   -2.42569918   -2.47374981
    1    6.57344453   -9.12565185   -5.83136176     59.86919592  -39.79315607 -101.67928466     54.23423197   28.65450095   16.22959297
    1    8.23343529   -8.97119101   -6.68924213   -227.38138869  -96.60925461   -4.80607606    -26.88168501   18.33017690   53.02400689
    8    1.48079488    3.81785170   -5.79575170    -11.79420891  -15.78785763 -110.35411104      0.48545527    1.48808284   -1.97515008
    1    0.82894304    4.10593021   -5.27071267    -61.43671730   25.62815579   50.68294232     -5.20336714    3.60174044   -1.62788388
    1    2.15199496    3.73285235   -5.24217392     71.17350839   -8.97103565   60.38586652     30.04566171   -0.10517892   21.06760478
    8    6.28349357   -0.45408082    2.82322121     -8.20965107   -5.57376597  -14.72979210      0.49955516   -2.05482809    2.21943003
    1    6.67409262    0.02217943    2.03599962     -2.47382422   -3.39126236    8.78929342     29.50740479   35.10233657  -46.11365806
    1    5.41072862   -0.75115487    2.43594824     11.10553789    4.48624127    6.30301332    -42.13174259   -9.57616987  -12.16787816
    8   -5.27687705    2.10823926    5.24142885     25.27014021    6.87054415   -2.38573902      2.11354535   -0.17984018   -0.20017777
    1   -4.93550978    1.83289957    6.12710928     -2.05386781    3.45706408   -9.33214812     -7.75933920    0.01224940    0.51767786
    1   -4.40804871    2.42775950    4.81866438    -22.98298771   -8.70129587   12.49358050    -20.48894907   -6.75264011    3.66219533
    8    2.47363140   -5.46184988   -3.03164888     14.08365190   26.77637938  -54.99733518      1.61860440    1.71401684   -0.95574375
    1    2.09833380   -5.13657474   -3.94688217     14.87193318  -15.57617132   43.32574020     -3.26417498    5.61831292  -18.01577357
    1    1.68371912   -5.78790154   -2.62358155    -27.68731638  -10.99225510   11.46053811    -15.08829133   -6.46671270   10.47304446
    8   -3.82705220    2.41590234   -9.03451266    -10.69368825   -3.59479000   29.03452005     -1.08653340   -1.74321817   -1.22126860
    1   -4.09764981    1.65977868   -9.56810410     -1.94127147  -11.17915439  -11.22792314      2.68079204   11.41116784   12.59576207
    1   -3.51935828    3.02615745   -9.69689734      9.53292931   16.86483237  -22.97576790      1.50361548    6.12920809   -5.68316966
    8   -1.15854068    7.49117446    3.71022091     18.34500443   17.75956773   18.51150013     -0.77931401   -2.17413829    0.98581692
    1   -0.95161791    8.42884522    3.43404921     -4.27996606  -18.13754945    4.50967782     -1.03933538    2.44582202   -2.13733056
    1   -0.64787661    7.41867031    4.57141214    -12.68540520   -0.03738046  -21.12935280     -3.80025889   -1.06861361   -3.56796973
    8   -8.79154115   -5.55008134   -1.99078352    -20.63677876   25.63389294   42.42804772      2.29736499    3.77257407    1.62119884
    1   -8.99080323   -4.82563488   -1.25923624     10.23959889  -31.72781327  -34.41155169      4.83104812  -15.28379106  -15.47626766
    1   -9.42373291   -6.25443649   -1.65679387      8.49339488    6.55648032   -6.34696285    -10.26520167  -15.71064029    7.64592662
    8    2.68412478    6.10810662   -9.80840122     49.53585277  -51.58740213   38.71184163     -0.71006711    4.07794159   -5.10302307
    1    3.59813230    5.60891220   -9.48938262    -71.64148500   40.35945953  -24.03415515     97.47625410  -59.73541682   37.68515168
    1    2.03044917    5.82977227   -9.07108739     22.15744314    7.77595774  -21.56329212    -64.10125601  -31.84515463   74.62235025
    8   -1.36633620    8.74749705    9.64256137     -0.28394584    2.81402967   -2.88019176      1.44252107   -0.83763007    1.11992981
    1   -2.28542096    8.83561237    9.95959808     -8.48682374    6.74120540   -3.14511421      0.25149031    5.65874516   -3.00014407
    1   -1.13360137    8.02604474  -10.22711271      9.82312353  -10.36013844    4.91100404      2.89054589    7.92442578   -7.55723841
    8   -3.33564605   -2.00594449   -4.26053228    -46.70202143  -53.20473173   87.01214364     -1.73873437   -0.31163557   -0.43816404
    1   -2.43988586   -1.89857914   -4.10670702     55.30774862    1.65456892   16.65850518     21.90534376    4.51480070    1.75506800
    1   -3.34674633   -1.63621590   -5.04255634    -11.23638732   42.83498416  -96.22953832     -4.51358539    5.60668114  -12.40442174
    8   -8.56931399    2.90417863   -7.76547342     23.75169625   29.01521137   33.08936973      3.62996828    0.28928202    1.96369452
    1   -7.56505560    3.12424728   -7.80203066    -37.11049818   -8.36759143    3.99417278    -26.39313615   -8.83887734    4.07290091
    1   -8.83702083    3.42986800   -6.91549904     12.80634846  -22.29702628  -35.57515687      3.75176733  -10.36013490  -13.34527397
    8   -2.96185785    5.61285572    3.22583114     -2.64086164    2.99792092    2.37448722      0.81111073   -0.16627216   -1.21850857
    1   -2.30709539    6.35047132    3.38593029     -2.18844157   -5.59909791   -1.96695184    -14.85305632  -17.45442195   -0.48002720
    1   -2.62477153    5.21907257    2.38898549      2.54134883    2.18686353   -0.35643775    -11.57239635    7.90633144   24.64200083
    8   -4.54074501    5.33049255   -6.38781135      0.25080399  -49.10502832   -9.40721460     -0.65947880    4.65925045   -3.92414835
    1   -3.82090993    5.89616373   -6.59686371     23.86103195   24.12197208  -14.59518774    -35.09694906  -18.26337050   -2.11887599
    1   -5.07283652    5.90452260   -5.87926754    -25.78827755   28.92945191   18.56804584     16.85546968  -29.59438039  -35.36580644
    8   -0.93954641    9.03898197    7.02029624     27.53206809  -73.54246194   25.05947702      1.70924500   -4.61686347    1.61121676
    1   -1.10137726    8.88165457    8.04044904      7.40179223    8.01405010  -48.08811340      4.19547349   17.31863413  -57.40118327
    1   -0.45595287    8.12505851    6.73149389    -34.00248217   63.75445387   19.26247358    -27.70924202   53.77880260    8.23616431
    8   -9.03211737    6.16095295    1.88227247      1.70189531   -7.23267360    9.25003069      0.81066262   -0.31477928   -1.43493127
    1   -8.17742753    6.18380721    1.40357661      1.62790295   -1.35480691   -1.58945447    -14.54356434    1.00238053    7.67126805
    1   -8.91073529    5.33445578    2.42765759     -2.25841836   10.50592129   -6.54043577     -3.04442682   12.08180645   -9.97701905
    8   -3.84576494    8.84751528   -9.73294626     12.55199651  -18.55011681  -16.59483159      2.94371024   -0.49931216   -0.94193462
    1   -4.35625104    9.62288604   -9.94192706    -13.45347095   20.32114317  -13.79411572      2.16240794    0.65662134   -4.38196570
    1   -3.87650240    8.95068778   -8.79530695      1.98404163   -1.82369547   30.61616445      3.95047182   -0.90266294   10.31587918
    8   -8.54391294    9.41142754    8.63799479   -166.03348430  131.86033723  -55.45334530      8.25637461   -2.91154217    3.80321082
    1   -9.39644298    9.54445590    7.77747819    134.10311256  -15.18351998  141.70861293    -36.86605483   24.50015235  -15.85519309
    1   -8.83877473  -10.18850557    9.34052409     34.30517926 -107.85315841  -90.91851929    -19.83828985   17.48583321   -7.66787751
    8    0.72264907   -1.00786151    4.61229603      0.89125769    6.32174284   -0.99674659     -1.23801444    0.94858896   -1.17526246
    1    0.70236818   -0.09334711    4.24042096      0.81582536   -8.42815327    4.19233214     -3.94830059  -18.99206552    2.42957856
    1    1.36820554   -0.87849044    5.34759686     -2.03430117    1.06728026   -2.71504002      0.69625003   -6.55376993    7.37752484
    8   -4.14716333   -9.13514725    6.35018079   -118.28201577 -100.64610239   38.64300434      3.93819536   -0.51976775   -0.92462250
    1   -5.10633089   -9.68027530    6.73614199    126.48597871   71.56413373  -47.70867267    -15.07641851   -0.95415900    7.44893946
    1   -3.64836143   -9.96279478    6.02403306    -17.89319143   29.40484153   13.13899563      5.59161480   16.01510223   -0.51905558
    8    0.38276240   -3.58926941   -8.96517454     21.85547602  -10.32961410   32.58787642     -1.29220684    2.01410952   -1.83414346
    1    0.69164774   -2.90131200   -8.26960227    -10.20444925  -23.58980580  -24.54720007      1.14661937    6.77722271    0.50014578
    1    0.83020421   -4.45236175   -8.64271815    -16.55726114   33.44552341  -12.69531564     -2.70131389    4.77056698   -1.85171731
    8    2.08232938   -4.57145901    5.53914085    -28.53250678   12.74569583  -12.08233687      0.67671276    0.26066264   -0.20882363
    1    2.52391998   -4.71392537    6.37196905     14.75046073   -5.58166023   20.33226819     -0.58170455   -2.73539833   -3.72035809
    1    1.24148339   -4.16541626    5.89051276     11.25054804   -6.78917179   -9.78563456     -5.74352393    1.75173362   -2.55158100
    8    4.80601075    1.78129275    9.08383349     20.51981958   -6.56627440   -1.55297987      0.48411904   -0.30273033    0.33952147
    1    5.35928270    1.25431852    8.44292745     -8.91759295    8.50391226    7.36561648     -5.19129257   -2.12557698    6.21672655
    1    5.53100908    2.02132309    9.72234032     -9.78718361   -0.83757870   -6.85780236     -6.12658454   -0.53879956   -1.44925054
    8    8.76609199    1.63935443   -4.08115924    -19.89016118   -6.47529942  -17.24507735      0.70143549   -0.03399070    3.44304865
    1    8.39896007    1.69212905   -5.04358190      7.74818883   -5.64738519   32.81790200    -14.07884299    4.74303746  -31.95285962
    1    8.04571070    1.08972614   -3.62828318     14.27642552   11.97999077  -15.17101571     -1.78248839   -8.01833771    5.65924180
    8   -9.95211451    7.81410903    5.43325232      9.75431088   44.72337983   79.51631478      1.37651212   -3.64549124    2.26816411
    1  -10.14489827    8.68139842    6.05266568     13.72209401  -64.88764847  -48.56936851     -1.65714514    6.14196989   -3.89831439
    1   -9.48687910    7.20503240    6.12872803    -19.54881542   24.20721617  -29.96455315    -16.21735124   18.12079078  -30.01678529
    8   -8.35099093   -2.66073482   -8.90947727     63.25628694   30.42815982  -13.50579190      0.65237011   -1.17701518   -0.19411080
    1   -7.53477180   -2.42970754   -9.54110057    -49.48811358  -17.59940462   33.77923081     22.38367614   -2.69667582  -21.95889947
    1   -8.01187741   -2.11705139   -8.12064070    -14.14842453  -19.19276092  -21.07705619      4.06065564    5.60796656   16.42333734
    8   -7.69252142    4.11972312   -3.36648852     10.36180851  -13.22461542   16.22059765      0.89212314   -0.03165402    2.73081517
    1   -8.19556356    4.28488110   -4.16322248    -12.46523690    4.46977678  -19.11923130    -20.44907615    7.75199904  -29.02551202
    1   -7.24699486    4.96588669   -3.23037326      2.93782802   10.55616566    2.10758318      2.35538844    4.72994485    5.39543446
    8    6.19641016   -8.42348024   -4.41106313    -27.39787062  -45.89102536   69.22657081     -1.49504219    0.18502816    1.62080077
    1    5.35467092   -8.01252415   -3.95503556     40.76912058  -21.09707700  -19.99422491     17.00434918   -9.36628844   -6.00974918
    1    6.35411142   -9.25092411   -3.74654955    -14.46766336   63.06798347  -49.87386501     -7.38942741   27.59018349  -21.20220623
    8    3.48656912   -2.25270899   -8.78204234     25.77332145   -5.28753535   -0.03486129     -0.44150929    0.12279665   -1.21819288
    1    2.67523635   -1.91165075   -8.42373646    -26.52233966    8.48683671    4.68287772    -14.96252756    5.72447021    7.62152722
    1    4.03028146   -2.10942505   -7.96584904      1.12967220   -2.94709580   -5.82046477     14.51180834    4.36710707   22.11762443
    8   10.14427601   -3.97185500    5.85769139    -16.61935690   56.17827849  -75.88357906      0.55648957   -1.15857735    2.45704875
    1    9.65780659   -4.59867105    6.27460952    -43.90368514  -54.01623323   34.97756094     20.98360569   27.36530420  -25.76884238
    1   -9.58106592   -3.99670970    6.36399298     59.75387505   -0.89118041   39.56130251    -39.44695360   -0.44458983  -25.03995142
    8   -0.85856333   -1.14904074   -3.51590776      7.17467934    4.48498138  -11.67370336      0.59636806    0.69683139   -2.38380558
    1   -0.80869045   -0.17234049   -3.62133653     -0.01009884   -0.69862209   -1.62265357      2.92439659   34.51737807   -8.63058900
    1   -1.11398452   -1.20152962   -2.57380130     -1.76680664   -2.27452011    9.58869799    -12.41808545   -5.13878539   47.30107832
    8    0.18922579   -6.49736275   -2.01975748    167.36127691  -43.51997859   16.99235488      0.13493985    0.75652957   -1.11474184
    1   -0.35738721   -6.50844396   -2.61883250   -101.01660324   -3.71387227 -111.32223118     -7.85551721    0.40938485    4.45553030
    1   -0.27023448   -6.14211868   -1.41284909    -67.96267769   51.70468679   92.47744253    -15.87944946    3.32278245    7.49132170
    8    2.91079318    8.08544987   -0.35790569      2.25632997  -33.73844231    2.84449874     -1.43155420   -4.43410083    1.52701588
    1    1.94985584    7.89879146   -0.11524673     20.94216952    1.26437499   -5.11245824     39.99005438   11.26533835  -12.58086945
    1    3.28893097    7.13812443   -0.43410374    -16.27635403   30.98579446    4.08321851    -21.47021346   60.32727319    1.07448775
    8    0.55436059    5.86298862   -2.16712212     33.35749161   15.50874795   10.42670583     -0.24388182   -1.12077701   -5.16232631
    1    0.05265124    5.46330255   -2.85205462    -17.64916731  -13.57350222  -22.54482894     32.35603769   19.20251771   43.74384160
    1    1.42213815    6.03145792   -2.65284441    -16.12982487   -2.89410121   10.73281070    -36.94399385   -5.30871968   25.81487942
    8   -0.39272032   -7.69175673    5.01012623     -2.59505544   32.53722450   42.28484279     -1.36897064    1.11848932   -0.13668615
    1   -1.02394265   -7.92478154    4.33983374    -20.91092031   -6.53859814  -18.58131112     -0.56981046   -4.27391223   -5.13304343
    1   -0.94542318   -7.06139102    5.61083215     20.62852033  -24.68575356  -21.85356135      2.29243796    2.80289458    4.78173675
    8    6.55963031   -7.99446583    3.01025646    -41.92138750    5.28242361  -22.92204359     -3.52744377   -0.30695030   -1.23184288
    1    5.72069997   -7.83629949    3.56292395     22.12928481   -4.30092060  -12.63520102     25.13085026   -8.03270620  -17.52141301
    1    6.13199939   -8.01437951    2.07235206     18.32947766    1.13021084   34.79377014     20.43426439   -0.59602557   40.06193167
    8    8.81544415    1.39189585    8.52154513    -65.86779292  170.03459205  101.35240860     -1.62369345    6.23402103    3.26638892
    1    8.04096344    1.77003277    9.36580916    119.75725865  -54.89393056 -132.56115359     21.90407820  -71.79168828  -32.57117303
    1    9.29109061    2.39282052    8.21002768    -60.18903008 -115.69811584   38.80717682     17.83417566  -70.18606811  -26.43472488
    8    3.76370619    3.65486766   -4.30603258    -58.84130560   52.74933666  -13.44286396      0.80010599    1.99886414    1.94431843
    1    4.55414644    3.69985242   -4.78200680     43.95434282    5.29967451  -29.90556909     17.36564670    6.77320634  -11.60332674
    1    3.97605376    2.97218037   -3.76018333     13.79545622  -55.95336965   46.72198211     -4.74906199    8.85982382   -6.71524283
    8    6.45511341   -7.96505206   -8.89437633    -44.92948364 -146.08481253  112.66052892     -0.36842807    0.53844448   -1.03317780
    1    6.70916452   -8.63956683   -7.95192708    -37.30698102   97.45609221 -133.27575657    -14.07076366   10.31236347  -15.87739979
    1    5.51341607   -8.45429611   -9.17751680     83.41897349   45.15592491   27.23854877     16.65675706    0.35788581   10.74990736
    8   -4.58284878    0.50720188    9.63245578     -0.92832062  -21.47678424   13.38251865      3.06781409   -0.80630721   -2.89081589
    1   -4.05056406   -0.34487203    9.48291485     -7.29223333   17.33648430   -0.29584972    -21.99473044   30.72620153    7.33807484
    1   -4.32065095    0.99939482    8.83880221      5.86308221    4.93051412  -11.46401814     -7.85620913   -6.13164032   15.09439726
    8    4.92096214   -2.01239082   -6.52956132     13.58189699  -74.64781738  -17.83458537     -2.50531260    0.68423898   -2.82219547
    1    5.04329991   -1.89839073   -5.56449336      0.99928755   -3.20072348    5.29997578      3.47214648    3.20982349   18.70338698
    1    5.11642038   -3.06997337   -6.61727078    -13.73365669   74.53914828   11.45947454      1.72704962  -23.22378926   -1.63673276
    8    5.71727855    8.88361793    2.21422451    -21.76177395   -6.82922685    9.88574783     -0.03324596   -0.00869929    0.53862729
    1    5.09613610    8.54623475    2.94028079     14.64996842    6.61354388  -18.16925014     16.19927710    9.11957755  -22.87926766
    1    6.36484472    9.35738733    2.76829105      4.81543683    1.95157846    2.93474044    -15.69371799  -13.67455422  -20.86812138
    8    0.35004282   -8.85189849   -6.70937980      0.43013855   40.68335150   31.16950497      0.19552320   -2.13140228    1.03298358
    1    1.32346848   -8.71994289   -6.60131921     -2.75712217   -1.38250018   -3.25913677    -56.13627397   -3.70173911   -2.28963944
    1    0.35698277   -9.65985227   -7.16577815      2.20573003  -40.20066440  -25.72562803     -5.69699927   36.19485757   16.23320399
    8   -0.74015849    4.82137368   -4.45198196     97.54075644    4.34749125   20.60798289     -4.01236086    4.00040949   -0.29265293
    1   -1.09245076    5.67525612   -4.41626968    -16.86080539   49.01342997   -2.36288558     25.68395344  -54.04049331  -15.31867821
    1   -1.47411867    4.37338942   -4.57462501    -77.11532556  -52.16881255  -18.62920608     33.58361554   18.23083140   13.75097656
    8    4.79513596    2.60049499   -7.93333927     12.36914700   -3.27225179   -1.70103949      2.58420278    1.65764683    2.23746754
    1    5.24758834    1.71159734   -7.98567051     -7.86845783    7.94269770    0.46162871     23.63982563  -37.02367304    0.27780711
    1    3.85549196    2.33939765   -7.87937540     -4.56974682   -4.86119276    0.12041041    -33.39629187   -5.05965680    2.04148062
    8    2.94331104    6.02544662   -3.33983592     34.80620751   28.80614533  -78.85175576      2.16180916   -0.62633907   -2.12456307
    1    3.23850447    5.16458276   -3.79441687     -8.84407381   19.47889352   15.78331726    -13.70324959   35.85890857   23.04469206
    1    3.23770671    6.71360600   -4.11919206    -22.70628719  -47.62879905   59.21950951    -18.03351811  -35.63705718   39.69796622
    8   -2.79161929   -3.26453715   -7.38963512   -209.77215425   82.48982098  -24.54948617      2.56805900   -4.70495360   -1.64659321
    1   -3.93147950   -3.57259869   -7.68343242    182.02589276   53.26032801   49.16248684      1.87797199   60.09151266   15.21164275
    1   -2.93908409   -2.15942374   -7.12085735     13.92555328 -136.95394876  -29.27344083    -60.72367067   -3.55935762   -7.87649515
    8    9.84081356    1.09034272    4.74466677     54.76897120   57.42258097  -10.19888360      1.99286853    1.83618746    1.38189658
    1    8.93769891    1.07143412    4.82611215    -66.43414569    2.80984876    5.60107931    -56.15482559   -2.43815255    4.44093785
    1   10.00357273    0.18834533    4.79087187     13.39800450  -56.97520184    3.42310960      1.49423677  -15.08360509    1.58957619
    8    7.16455754    8.86698461   -8.44583152     10.18344572   49.24871273   49.25016747      1.60305223    0.01029893    1.04866412
    1    7.10939362    9.74564030   -7.84727759     -0.34425707  -54.93442752  -37.13940431      2.33032342  -40.26736348  -23.88446144
    1    7.82783267    8.36116430   -7.88132864    -13.16870986    6.15879230  -11.14278508    -42.02924485   28.87811986  -33.64850687
    8   -3.00702844   -3.44723225    2.91321737      9.59912648    2.46678545   10.31551277     -1.29109080   -1.03871144   -0.96286630
    1   -3.37505036   -2.61089970    3.29753205      2.23241262   -5.50285864   -3.08561493    -21.57318078   31.39390929   11.79613825
    1   -2.07968308   -3.39320320    3.28391035    -10.90235774    0.09903509   -5.44764840     42.53742532   -5.31520413   12.44827718
    8   -7.36533362   10.22938761   -8.88705143    -22.05783059  -15.28203975   15.74414917     -3.48891628    3.11784002   -1.42677999
    1   -8.01836762   -9.75319866   -9.43410570     -2.74014702    2.52528880   -1.89793029     38.84107038  -34.16032301   39.47140275
    1   -6.54612423   -9.88512981   -9.23296870     21.77647717    9.53405079   -9.44498185    -38.32117731  -15.34963578   11.18965563
    8    8.50210804    3.98250291    1.52315426     18.27756258  -24.62792077   -5.12391204     -1.23968054   -1.32370338   -0.52222589
    1    8.21305762    4.29937257    2.37293327    -12.66093841   14.96699717   16.91412028     -9.91555465    6.64984398   22.29209309
    1    9.05152848    3.21631174    1.83991996     -6.01107880    8.51119718  -13.33698761     19.08114752  -25.53091360    6.05373998
    8   -8.07454982   -3.99598094    7.30452695    -68.21769599  -39.90333819   22.16302904      0.56544025   -0.37327361   -0.45182711