 BEGIN_INFO
   #
   # This is a XCRYSDEN-Structure-File
   #
   # aimed for Visualization of geometry
   #
   # Launch as: xcrysden --xsf HICOLM.XSF
   #
   #
 END_INFO
 # estrutura final
CRYSTAL
PRIMVEC
      22.61836696       0.00000000       0.00000000
       0.00000000      22.61836696       0.00000000
       0.00000000       0.00000000      22.61836696
PRIMCOORD
  927    1
    8    2.64823071   -9.50113248   -9.36627316    -33.15477975  -65.53569028   32.39358219      4.32956049    4.32921559    4.33085258
    1    2.73551965  -10.38128602   -9.88742582     -1.81503228   48.00600455   25.95962667     17.25269503   17.26347673   17.25787481
    1    2.19414150   -9.77665937   -8.48774635     32.20660110   12.11969813  -58.53816277     17.26136075   17.25471292   17.23677743
    8   -4.31593863  -10.46708538   -7.31431121    -43.14681014  -91.92845135   -1.89278370      4.32935487    4.32845328    4.33020037
    1   -3.83529044   11.24897927   -7.22080545    -20.72466521   64.21129333   -6.90299908     17.24881176   17.27023462   17.25053537
    1   -5.30146037  -10.72303123   -7.44515595     64.30662552   26.40296445    9.46709887     17.26943398   17.26108623   17.25523830
    8   -5.74220869   -3.17648346   10.91616903     59.04566530    4.08041189  -39.64874670      4.33107360    4.33012665    4.32958379
    1   -4.86471802   -2.75942520   11.24789358    -52.01250189  -17.27291702  -22.03811437     17.23965560   17.24975082   17.24658721
    1   -5.57193619   -3.35317779    9.91933595     -8.63244664   17.00278990   58.83310633     17.25065215   17.25806660   17.26690806
    8    2.24301836    6.44146333   -7.40396503    -34.81664770  -66.06018458  -11.42408511      4.32980404    4.32906259    4.32987374
    1    2.49327909    5.44589795   -7.41504121    -20.22787658   58.68292296    2.04528106     17.24650247   17.26685783   17.25339333
    1    1.21663061    6.43980285   -7.42440522     59.22536707    1.26387038    2.56128398     17.26673610   17.25292090   17.25336964
    8    6.20415578   -0.75119251   -6.35201720   2305.92820417-2765.32644817-4410.52090562      4.41967466    4.22125414    4.15947271
    1    5.59609252    0.00048302   -6.00679474     15.43213456  -32.56198185   68.41833619     17.25228044   17.24679306   17.28654172
    1    6.72981877   -0.31354608   -7.11756768    -31.44906644  -21.69747835   55.25082002     17.24466782   17.24794508   17.26796748
    8    3.11009022    5.65271563    8.08326381    -48.96394660    6.32470203   52.79738503      4.32946274    4.33029549    4.33101388
    1    2.33980594    5.01586786    8.31774231     46.64648994   39.16659440  -14.38731959     17.26409450   17.26227966   17.24879789
    1    3.03111047    6.40439109    8.77803038      4.49276056  -44.72675675  -41.72112240     17.25356075   17.24154833   17.24215117
    8    4.49733067    9.43980898   -3.80633928     45.34928458  -18.10818016   66.75059154      4.33088733    4.32972186    4.33138699
    1    4.46972800    9.93531636   -2.90763474      3.18285656  -25.08542259  -54.02429754     17.25359234   17.24712290   17.23897826
    1    5.32517941    8.83721619   -3.73234348    -51.76083633   42.62759913   -5.99864696     17.23929546   17.26438334   17.25065896
    8    7.11152863   -0.00024144    9.86884135  ******************************************     43.51159593    3.78578030   16.51244810
    1    7.63040891    0.25704747    9.02121121     -7.87151993    3.93171006    9.69921072     17.25497696   17.25709250   17.24699953
    1    7.46558025    0.64693533   10.58280804    -30.27994577  -28.78789108  -28.68122490     17.24329343   17.24723609   17.24797043
    8   -5.78294114  -10.02583551   -2.61079272    -18.13221979   42.21189106  -63.39991128      4.33003634    4.33090715    4.32913504
    1   -5.29618168   -9.79928959   -3.48581512    -30.39323025   -9.80758461   53.02945620     17.24467719   17.25069112   17.26580912
    1   -6.70707448   -9.59263634   -2.72132617     52.67022288  -27.38389925    9.60729624     17.26501468   17.24532794   17.25553206
    8  -10.51053204   -0.43921839   -1.55298016   -387.68547536 -315.45493136   98.00113652      4.31674041    4.31885678    4.33469622
    1  -10.73071502   -1.44188916   -1.54493952     18.70545619   61.55696346    2.78058070     17.25816456   17.26810988   17.25383282
    1   11.25209414    0.00013297   -1.91155309     52.38721940  -19.72846058   24.61294530     17.26560470   17.24881587   17.25933649
    8    0.59118507   -9.70716228    6.75602159  ******************************************  31908.7688239216012.9956305313199.14094182
    1    0.41210391  -10.65495747    7.13546733     28.93105729  149.37626135  -66.43492318     17.26253610   17.30594142   17.22820970
    1    1.59033664   -9.65734210    6.65142244    -64.77124911   -4.40520520   -0.85649615     17.23000368   17.25101290   17.25120997
    8   -4.79533937    8.43797231    0.45788178  ****************************35285.53764145      0.43624567    3.88532407    5.70011416
    1   -4.99953425    7.54226837   -0.00026769     22.50634892   66.77256549   25.01241043     17.25998677   17.27151304   17.25829237
    1   -5.72197782    8.82311525    0.67446835     62.89769371  -20.77278385  -23.62773659     17.26948771   17.24788556   17.24455496
    8    2.60853440   -6.21009115    4.55716810      4.23241707   42.32700456  -67.01029296      4.33049986    4.33110482    4.32920777
    1    1.84400702   -5.62397352    4.20238106     37.80789194  -44.92239657   20.02786401     17.26037044   17.23941165   17.25729207
    1    3.18425081   -6.39617749    3.72781326    -40.61123487    5.55011803   48.21940247     17.24128047   17.25271519   17.26414050
    8   -4.45920552    9.47381085  -10.13682706    -49.12464747   40.29815533  -14.90334102      4.32949982    4.33078326    4.33008632
    1   -5.24150339    9.86036663   -9.59598279     45.72268031  -20.89821184  -39.55853225     17.26363693   17.24768327   17.24133933
    1   -4.60912724    9.83751670  -11.08505758      3.42135838  -16.37704463   48.48379352     17.25229029   17.24938901   17.26289566
    8   -1.46898417   -9.71955481    9.57860928     29.80309735   28.03486557   -8.08072904      4.33046260    4.33008662    4.32994365
    1   -0.46608543   -9.58112467    9.40836765    -59.38630372    9.38128234    0.95687069     17.23789687   17.25818512   17.25095933
    1   -1.84962508   -8.76658881    9.60865113     23.83710604  -45.67797127   -3.46421848     17.25864028   17.24332741   17.25127719
    8    4.51477374    3.68926474   -3.02273350     -5.83077642  -38.34840739   58.22598448      4.33009146    4.32955929    4.33104180
    1    4.02743230    2.80612666   -2.83179428     26.78113100   54.67401563   -6.35656853     17.25865941   17.26642788   17.25190215
    1    4.90917594    3.95690500   -2.11346080    -28.82732563  -17.34901156  -52.25890831     17.24442161   17.24796506   17.23984797
    8    3.28083089    3.65574001   -9.63928438     28.24966948  -76.65863660    9.37985229      4.33058184    4.32891008    4.33047655
    1    4.06339658    3.33950221   -9.05487282    -48.44660359   24.26972101  -36.66885883     17.24016674   17.25948259   17.24305469
    1    3.02381335    2.82308828  -10.18197081     16.59310080   52.03693352   30.15837747     17.25689726   17.26581178   17.25951159
    8    9.20406097   -6.56827669   -4.92954800    -29.14960665   80.38165937   12.19753819      4.32960657    4.33157611    4.33050790
    1    8.24743473   -6.19776379   -4.89086701     58.72876996  -22.74246107   -5.52793243     17.26736887   17.24669367   17.25045659
    1    9.79573303   -5.72931910   -4.92400615    -34.69577180  -53.31901719   -6.95390300     17.24407454   17.23875762   17.24933810
    8  -10.03673433    5.49655197   11.12397474    -46.50762069   18.11030561   68.42405855      4.32935053    4.33065641    4.33131415
    1  -11.04936364    5.59345694   11.26216470     60.50441271  -12.90625763   -8.76041898     17.26748392   17.24789118   17.25023258
    1   -9.65658062    5.47839731  -10.54092108    -17.72692490   -6.24980397  -58.73766964     17.24903931   17.24946185   17.23760124
    8    0.08590149   -3.01382707    8.56262552   1057.76425683 7592.85364677-4629.21729942      4.36994183    4.62354914    4.15059255
    1    1.09453342   -3.19472536    8.62495143    -77.10195660   -8.20958045    2.10038848     17.23023091   17.24677432   17.25402139
    1    0.02489147   -2.00318010    8.39289237      4.41465553  -73.41979585   14.35130592     17.25369115   17.23183150   17.25678090
    8    9.32730415   -0.01132843   -6.72053384     21.17961248   59.83027093  -56.40373016      4.33007447    4.33151784    4.32806778
    1   10.34967299   -0.00420329   -6.81359837    -55.00348082   13.44273999    7.34638488     17.24009136   17.25848110   17.25467129
    1    9.07355443    0.98304103   -6.69261919     16.14086133  -46.51405079   -3.50468573     17.25676887   17.24346639   17.25137848
    8    7.82011203    7.79115514    4.81439710     50.69682483   30.79518288   43.48019323      4.33096800    4.33060612    4.33102935
    1    7.88169574    8.80441632    4.96758303      3.19144920  -57.40739642  -11.10282631     17.25463634   17.23888248   17.24929895
    1    8.67522452    7.42227147    5.24642872    -47.69145951   30.54633927  -25.79043691     17.24136645   17.26161300   17.24603507
    8    4.02809013   10.22347319    0.20809784   4343.3027293211689.47679581 4716.98762796      4.50061185    4.78443824    4.51329101
    1    3.24987317   10.85975809   -0.00030970     72.11720993  -79.71738865   10.03717272     17.27524021   17.22477180   17.25443690
    1    3.57119830    9.32056960    0.38101979     27.07663451    3.30990792 -106.16828185     17.25908780   17.24353776   17.20787157
    8   -0.69343058    9.24955404   -1.84275156  -2412.78395995 -453.42288379 2139.63042577      4.23529717    4.31161975    4.41242489
    1    0.00076844    8.94997521   -1.14827800    -41.38427255    7.99589589  -62.47470128     17.24221354   17.25264877   17.23293502
    1   -0.58697305   10.27009726   -1.87601856      3.48666761  -74.82997863  -16.94962595     17.25522258   17.23134142   17.24468841
    8    3.74327536   -0.00135277   11.04762522  ******************************************     48.28370171   93.49728953 -533.01563026
    1    4.56087571    0.58338956   11.25643687    -46.23069392  -57.64567728    6.37350923     17.24156260   17.23383797   17.25760540
    1    3.55421945    0.18075464   10.05548236     32.75509749   -6.93384241   21.08161849     17.26472288   17.25142499   17.25043706
    8    3.90708716  -10.31415722    9.79089666     -3.16445278   33.03323467  -80.28864734      4.33000687    4.33091191    4.32882502
    1    4.74692147   -9.95214882    9.32445028    -45.28030193  -25.73322647   32.96143986     17.24214624   17.24536181   17.26159415
    1    3.19431922  -10.31685922    9.05209068     45.07683470   -1.10755347   46.14204314     17.26413023   17.25201053   17.26432571
    8    6.00783104    0.01511599    9.52480806  **************13974.18818888**************    -34.85668525    4.87386999   -7.88499905
    1    5.74817089   -0.97527009    9.45005330     29.70694892   65.48259082   20.16473569     17.26258789   17.26983581   17.26043940
    1    7.03323560    0.00006834    9.57289070    182.88203587  -44.37007009 1211.32687570     17.34447872   17.23277732   17.78485380
    8   -1.33586216    4.49389161   -7.48685919   -112.65866508   41.77185981 -167.86125172      4.32494847    4.33298435    4.32482342
    1   -0.32760717    4.40012698   -7.65589343    -64.35887287   -0.73947219   33.39024524     17.23572858   17.25106995   17.26517250
    1   -1.74520900    3.68758703   -7.97284460     22.76851850   48.61984067   41.76898203     17.25780137   17.26455050   17.26518305
    8    5.81992891   -9.23874542   -3.05335123     50.24470352   -6.74834128   50.34429180      4.33104422    4.33022990    4.33090908
    1    6.36017757   -8.57912240   -2.48151117    -33.27176619  -42.22102083  -28.34982764     17.24411976   17.24150404   17.24654671
    1    6.05994353  -10.15832816   -2.66518739    -16.75266187   52.54254156  -21.13878236     17.24792402   17.26504249   17.24761071
    8   -9.87578248    2.44081660   -0.00349593  **************************** 3588.81627890     10.87209148   23.64997555    4.46947759
    1  -10.64263577    1.75830161    0.00056164    426.61970848 -453.25155834  -18.13072511     17.43099607   17.04559288   17.24460839
    1   -9.02800426    1.86184865   -0.00241429    365.54246057  205.83349085  -24.96556940     17.42262524   17.33621675   17.24160575
    8   -2.65026501    6.00411135    0.93878516   -495.29913430   69.57646684  344.65698725      4.31011979    4.33325374    4.34212063
    1   -1.68204129    5.75074723    1.16747443    -38.53062439   36.96578611  -27.51804977     17.24659559   17.26585524   17.24286816
    1   -3.05538868    6.27714448    1.84170640     22.32773489   -4.19873999  -56.51677419     17.25741357   17.25376735   17.23791686
    8   -6.05635193    0.48909096    0.05430793   1262.70915594-5878.19539181  572.57941229      4.37958235    4.10189359    4.35211925
    1   -5.12569844    0.05819971    0.00792016    -59.18012050   23.35816906   14.18396698     17.23713191   17.25780019   17.25811291
    1   -6.51809910   -0.00000058    0.82986730     30.32692968   22.99304278  -20.40230385     17.26041724   17.25702562   17.25235095
    8   -8.13779102    2.79584894   -4.33702972     39.62500636   74.95843103   42.37474414      4.33105632    4.33153626    4.33096774
    1   -7.26382128    3.31170208   -4.49204811    -56.91290995  -35.75068669    6.77605939     17.23737616   17.24270681   17.25367744
    1   -8.61567798    3.33178288   -3.60331432     26.09428519  -38.53147939  -47.09216536     17.25846768   17.24169917   17.24016963
    8   -7.57605634    3.97333851    6.56146992    -23.06735902  -21.19977861  -83.69835181      4.33000332    4.32981727    4.32863056
    1   -8.48797037    4.28280874    6.20574583     53.78536483  -20.39762248   30.12042391     17.26573797   17.24706440   17.26162739
    1   -7.22481860    3.34402588    5.83038111    -24.90826991   33.61019586   44.41878076     17.24567239   17.26007365   17.26360924
    8    5.30260809    8.14772292    7.49375700     29.06735200  -46.60059060  -49.81453346      4.33066532    4.32954495    4.32939213
    1    5.40267856    8.20467201    6.47363777     -2.72014694   -5.61985989   60.39523920     17.25236728   17.25067412   17.26744928
    1    5.67706735    7.22117803    7.72871372    -22.59684141   51.88090792  -12.18022204     17.24680574   17.26472141   17.24979223
    8   -6.51283045  -10.06035329    0.43481455     42.29244977  -32.74366446  -34.67795229      4.33083908    4.32982491    4.32976451
    1   -5.61315979   -9.81303079    0.00660183    -57.06416492  -20.33021559   20.05644767     17.23771623   17.24640744   17.25634151
    1   -6.66262293  -11.03581955    0.15213486      9.91849138   53.71082554   12.79724830     17.25506151   17.26489374   17.25493763
    8   -4.61390091    0.25373336    6.50722322  10575.4419516416698.49974366**************      4.73982254    4.97820021    3.80245932
    1   -3.72217599    0.00017929    6.06624005    -55.34939767    9.19357026   24.00774399     17.23829663   17.25354811   17.25789316
    1   -4.67063304    1.27151999    6.38543691      0.30216385  -52.52569221    3.47220596     17.25187275   17.24109186   17.25258374
    8   -0.84723326    0.75639388    5.98768611    -17.08808504  -66.82623366  -36.61420417      4.32936240    4.32941254    4.32928873
    1   -0.92687649    0.22362075    5.11378924      3.03505412   35.84446737   55.30111918     17.25288959   17.26214294   17.26686872
    1   -0.63592782    0.04305510    6.69508989     -7.19255257   51.08154213  -30.89570362     17.25176419   17.26660999   17.24693512
    8    3.66538836    9.38318120   10.43674151      9.69016459  -71.56155466  -46.50734007      4.33019102    4.32876551    4.32954481
    1    4.24663659    8.54667896   10.56455287    -31.58528018   58.56668625  -11.28240099     17.24517261   17.26873218   17.24902100
    1    3.43562596    9.37547408    9.43622379     16.90129982    6.27171938   58.26205404     17.25723694   17.25511108   17.26670712
    8   -0.86715465    5.64257183    0.00022416    541.69100718 -200.63158251 -253.37213828      4.35114783    4.32427535    4.32001869
    1   -1.65206441    4.98090526   -0.00026985     28.81984415   50.51193924   -8.31096309     17.25615113   17.26708369   17.24888833
    1   -0.03523246    5.04104965    0.00066828    -51.17916451   37.03316427    2.28176490     17.23953036   17.26183028   17.25352343
    8    5.72151209   -0.00810908    6.05564138      3.52021563   24.03827507   84.16454374      4.33046780    4.33085031    4.33183608
    1    4.96713390   -0.00273418    6.75192231     43.91878804  -10.71566332  -33.36935715     17.26315869   17.24766464   17.24588014
    1    6.57961343    0.00313152    6.61910618    -46.02313093  -11.97025830  -37.62297173     17.24207132   17.24732747   17.24243134
    8   -1.10956755   -6.79764416    5.02070030    -94.36288545   16.36225457  -28.65404648      4.32834884    4.33041253    4.32948769
    1   -1.61293894   -5.93701603    5.26539692     36.79179239  -52.77084302   -7.09533301     17.26287749   17.23917645   17.25215706
    1   -1.80986845   -7.36317299    4.52711403     47.67965053   34.85567150   30.27434159     17.26543132   17.26133024   17.26010677
    8    4.23286273   -9.68686804    4.86889013     64.30092698   17.97718899    8.59498641      4.33114013    4.33034137    4.33043924
    1    5.12870227  -10.18135042    4.78587354    -53.10646997   32.19376084    3.91551631     17.23944616   17.26104779   17.25332813
    1    4.50267004   -8.70880965    5.02560453    -16.58821005  -52.99589474   -9.92356416     17.24822194   17.24049288   17.24991007
    8   -0.46228482   -3.06643326   -8.28659510   -389.32279497   30.74025231  128.78267247      4.31503236    4.32962448    4.33543683
    1    0.00004680   -2.15003900   -8.26576969    -33.44224655  -25.04214258    1.59741080     17.24308542   17.25196299   17.25342095
    1   -1.46345416   -2.83942852   -8.29174420     53.92057075  -17.58710208    0.44811864     17.26467721   17.24741581   17.25256428
    8  -11.00126874    3.10590906   -8.86900728    -80.32278414   18.64368453   16.97164517      4.32882918    4.33065650    4.33038692
    1   11.03764725    2.40473896   -8.39308741     41.18810583   41.75077168  -31.55298129     17.26394215   17.26281899   17.24410123
    1   10.98613661    3.90598997   -8.99421790     39.31771691  -53.98998000    5.18112207     17.26243337   17.23794303   17.25330197
    8   -9.75471774    0.62488208    2.58860654    716.28805933  146.02046041   27.38922375      4.35790286    4.33762501    4.33152834
    1  -10.56552986   -0.00387263    2.55490553    -11.08181637   49.11813152    9.86474555     17.23833630   17.26704104   17.25646313
    1   -8.94790518   -0.00647266    2.52253864    -54.91033324   38.18136062    9.85075827     17.23745837   17.26203732   17.25601950
    8   -5.08316656    5.83864938    8.14863519     61.49917959  -39.06681475   29.38461555      4.33122570    4.32964319    4.33077985
    1   -4.97290382    4.82199615    8.05832364     -9.59902381   60.74827831    0.48047751     17.24952723   17.26757031   17.25169271
    1   -4.20224867    6.14697900    8.57627455    -47.47919112  -15.78212481  -29.20600549     17.24162521   17.24905179   17.24453737
    8   10.17045224   -3.65186768    6.20572393     27.12525039   54.39384134    1.07685673      4.33056816    4.33088225    4.33014805
    1   10.03598533   -2.85553064    5.57193395      8.79244848  -44.23623425   40.67315710     17.25482087   17.24222208   17.26308308
    1   10.84386061   -3.30628776    6.89930789    -39.20471053  -13.57581152  -40.85782534     17.24302176   17.25048354   17.24250279
    8    8.39282093   -3.38451428    8.55930073    -72.18496502  -19.43289995  -15.65383573      4.32898141    4.32982614    4.33020523
    1    7.92502283   -4.29048399    8.43984810     28.55885931   53.97804418    4.23210639     17.25959308   17.26578918   17.25289941
    1    7.74633235   -2.71261272    8.12975567     44.18834469  -37.76084557   20.71025354     17.26448015   17.24349450   17.25665362
    8    3.84272713   -6.88024105   -7.12435893     54.94473239  -21.69180434    3.63266290      4.33086174    4.32990075    4.33049201
    1    4.72037613   -6.36170818   -7.00262114    -52.33547123  -32.26296521  -13.56764796     17.23952803   17.24408890   17.24797421
    1    4.14451251   -7.80708106   -7.44651521     -8.36845232   52.71285133    9.69942462     17.25223411   17.26499460   17.25299173
    8    5.50937976    0.10521762   -5.02317286  -2094.81360421 2836.89581455 4231.11865164      4.24796088    4.44031672    4.49424487
    1    6.51268568    0.00014697   -4.83266995    -57.46526687    0.67167069   -9.57956674     17.23875805   17.25151379   17.25055552
    1    5.10040347    0.29757204   -4.10139445     -3.29386038  -12.94365613  -40.20348801     17.24637082   17.24899611   17.24537878
    8    2.55298046    6.22519835    4.99285063     90.64839871   -7.31755755    3.24265011      4.33199260    4.33037758    4.33036016
    1    2.85095302    5.25464027    5.14496488    -22.59372697   54.22378410  -11.35104468     17.24593940   17.26520878   17.24916706
    1    3.43062406    6.73133097    4.82695495    -55.86466393  -38.60846532   11.82800230     17.23800978   17.24138815   17.25579644
    8   -6.75576895   -0.97312709   -3.40883010    -68.02696562   34.97283770   33.66012446      4.32912635    4.33067914    4.33090104
    1   -7.68444858   -1.40403033   -3.33289127     55.37912076   14.10960686   -7.56094891     17.26614103   17.25384807   17.25009743
    1   -6.90915558    0.00003280   -3.12007398     21.43828015  -49.84574241  -19.80294128     17.26000446   17.24181033   17.24703737
    8    4.72076244   -2.76941533   -8.60404173     42.46056996   56.35146332   15.11871668      4.33099919    4.33094332    4.33055176
    1    4.29549657   -1.88084274   -8.31502281     18.74034024  -49.94230834  -24.14332172     17.25578022   17.24073743   17.24510266
    1    5.69937552   -2.52556744   -8.79587421    -64.48630653  -13.12465471    5.37016254     17.23540205   17.24953812   17.25263886
    8   -9.13892302   -9.47854965   -6.97300759     -3.31213143   66.76017057   10.40352255      4.33019875    4.33118657    4.33064918
    1   -9.97533911   -8.97720350   -7.29388970     49.04187375  -28.59850689   10.66096100     17.26445594   17.24564161   17.25353864
    1   -8.44857888   -8.73503188   -6.81627165    -41.86308327  -42.16256320  -16.56521318     17.24199773   17.24255319   17.24702031
    8   -2.97045922   -7.52070919   -2.62288924    -22.68800795   54.34153456   33.74989134      4.32993407    4.33097951    4.33077968
    1   -2.49907810   -6.63364988   -2.41101510    -29.81631138  -49.56970610  -14.41647938     17.24472372   17.24088868   17.24867199
    1   -3.94133288   -7.36233503   -2.32924324     55.47633655   -7.47620438  -15.80804367     17.26585737   17.25092264   17.24895633
    8    4.10713369   -6.41568995  -10.06035329    -69.21571604   53.14643672   16.67968647      4.32893270    4.33114454    4.33044794
    1    3.10401701   -6.63310596  -10.07981766     64.23881410    8.10383469    0.44240423     17.26912823   17.25351342   17.25249573
    1    4.14303370   -5.43589318   -9.75594741      1.08977339  -58.92659893  -19.09404401     17.25336715   17.23779366   17.24756139
    8    8.54585681   -0.00031220    0.74191058    298.54239030  394.91203337    4.20511205      4.34165178    4.34548900    4.33202315
    1    9.25326165    0.66701075    0.41295695    -46.89384929  -25.41129075   20.32056562     17.24002828   17.24898156   17.25766118
    1    7.83924644   -0.00043140   -0.00279126     12.39263764   19.60106302   36.88629032     17.24984859   17.26101653   17.26011602
    8    8.14570020  -10.92199472   -0.00774288    381.36864064-5778.72159771   14.60096846      4.34468580    4.10682618    4.32997102
    1    9.06694232   11.25331876    0.08689595    -44.64009456   18.36139085    2.21274097     17.24346689   17.25547977   17.25454215
    1    7.52087032   11.08843195    0.53437665     37.60616497   35.10800042  -25.36759324     17.26193736   17.26098211   17.24751458
    8    0.00761176    8.36191455    0.51937385     77.78786304   19.07369822  -36.61225956      4.33179352    4.33021689    4.32997302
    1   -0.00062528    9.24689189   -0.00089561     -1.40791395  -40.09483270   56.71690222     17.25158342   17.24497301   17.27148076
    1    0.93621455    7.96900694    0.32637492    -65.41658426   21.91209311   17.99943044     17.23439063   17.25763454   17.25808896
    8   -8.07600195    6.02432571    8.63836054     33.68772244   23.33742407   53.76625042      4.33061304    4.33083317    4.33094762
    1   -7.77376529    5.24199983    9.23043111    -20.39351447   39.77893230  -32.53423090     17.24707355   17.26104856   17.24503489
    1   -7.69479380    6.85343245    9.10870767    -23.02489725  -57.63350518  -25.93469826     17.24677971   17.23664878   17.24649848
    8    8.45950526   -0.01067788    3.70231985     22.90482454  103.87058457  -27.16826076      4.33110220    4.33268809    4.32935483
    1    9.19583685    0.68797367    3.54849915    -45.07654159  -30.23776795   14.42150609     17.24105935   17.24719184   17.25708254
    1    7.60336596    0.54773656    3.79777402     46.79186777  -33.06567141   -5.30840607     17.26328310   17.24443413   17.25122881
    8   -6.40325631   -9.44820550    7.12172148    -23.25424418  -67.58152006    1.38802414      4.32957695    4.32920472    4.33034117
    1   -6.06119409  -10.04195343    6.35729105    -11.65929526   32.50961569   40.78835552     17.25131813   17.25998420   17.26162812
    1   -6.84466954  -10.10936047    7.77128794     34.11736686   33.81630622  -36.82129875     17.26247579   17.25976678   17.24368767
    8    0.00053543   -4.39458070    9.49091366   -420.81271449-7107.38282275 4093.41382413      4.31458428    4.05437195    4.48766183
    1   -0.17172461   -5.33520159    9.86436255      7.28650548   52.30729342   -1.86474485     17.25375270   17.26458175   17.25602801
    1   -0.62146498   -3.79111247   10.04125324     35.19517476  -50.29827587  -59.45410859     17.26070965   17.23728851   17.23266605
    8   -9.94119758   -0.56587370    7.90427282    -19.11760002    8.14421694  228.47895262      4.32888677    4.32888026    4.33895676
    1   -9.72208772   -0.00020954    7.07605858      3.45477615  -46.79427625    8.18655375     17.25646403   17.23844186   17.24663033
    1   -9.59756176   -0.00040987    8.68921020     -4.18925784  -34.38603011  -55.26083279     17.25461224   17.24385948   17.23723446
    8    9.36810263    4.50023829   -0.00055003  ******************************************     32.29293220   18.16399467    8.33730612
    1    8.53790298    5.10410213    0.00672030   -165.94960438   58.38575666  -11.19132969     17.17008514   17.28500965   17.24766739
    1    9.43369376    4.15660041    0.96461568    -13.00146374   13.05161398  -53.68925533     17.24751876   17.25422000   17.24005916
    8    8.16508526   -0.60303296   -1.72704284  ******************************************      0.77031313   -5.66046296    3.75533981
    1    8.69239616   -1.48348218   -1.70136599    -36.52897531   49.27748994   -8.22115381     17.24262336   17.26401174   17.24911860
    1    7.19672973   -0.89833749   -1.89720874     52.13453258   26.40260999    7.48117127     17.26430767   17.26065120   17.25382940
    8    0.83435939    0.01540002   -6.83446040     -0.88919503  -87.35803948   16.75913839      4.33057267    4.32845174    4.33120257
    1    0.00611069   -0.59048106   -6.86271361     60.50328858   19.86847167   17.56562191     17.26960118   17.25423848   17.25971082
    1    1.62050201   -0.63250706   -6.96140402    -32.42115469   33.42551280   -2.85792568     17.24731039   17.25976376   17.24975622
    8    4.25769446   -6.51361779    7.61878702     54.16984647  -14.23660309   40.28227115      4.33092327    4.33007746    4.33090440
    1    4.62555024   -7.46751474    7.71192766    -17.25384818   59.75070900   -5.46476749     17.24905201   17.26781689   17.25106900
    1    4.92037204   -5.93873287    8.15201322    -34.21458329  -43.31191162  -27.86771827     17.24507295   17.23998900   17.24626048
    8    0.09736898   -5.73151451   -0.49453968     57.82568647  -54.73429476    4.45105765      4.33116492    4.32933058    4.33016613
    1    1.08258446   -5.71717196   -0.78278887    -62.79874694    1.59098199   22.99920153     17.23612026   17.25326483   17.25933565
    1   -0.00280849   -6.62378719    0.00317245      5.29014868   48.52217956  -23.63973761     17.25358357   17.26353609   17.24783228
    8   -8.79547712   10.71745375   -8.64151928     22.28412372  -31.48135075   80.16876889      4.33072344    4.32960074    4.33156996
    1   -9.50761820   10.38003546   -7.98355495     41.82660678   28.13945325  -45.25610127     17.26284365   17.26089540   17.24015289
    1   -7.92290649   10.68419111   -8.10164006    -63.46333287    8.00915418  -36.27448692     17.23457519   17.25552111   17.24276757
    8    7.42989781   -1.74763922    0.69730178    204.95625805  -76.94889032  164.68579922      4.33647919    4.32744426    4.33777640
    1    8.21597150   -1.10066201    0.82949033    -30.05547611   18.77886267    9.91169087     17.24826821   17.26810422   17.25831845
    1    7.77358748   -2.41650382   -0.00154509    -15.90527470   67.05882605   55.27484542     17.24935574   17.27437618   17.26878446
    8   10.81852231    0.58312641  -10.82549818    -36.08257837  -68.36183545  -36.04407171      4.32944033    4.32923332    4.32940937