 BEGIN_INFO
   #
   # This is a XCRYSDEN-Structure-File
   #
   # aimed for Visualization of geometry
   #
   # Launch as: xcrysden --xsf HICOLM.XSF
   #
   #
 END_INFO
 # estrutura final
CRYSTAL
PRIMVEC
      20.69563787       0.00000000       0.00000000
       0.00000000      20.69563787       0.00000000
       0.00000000       0.00000000      20.69563787
PRIMCOORD
  927    1
    8    4.54757134    2.97955318    2.02075875     -3.13170079  -11.84509082   -4.12012318     -1.38977759    2.76194622   -1.30537684
    1    4.98517719    2.74937720    2.84146710     10.40287075   -3.86836210   14.18929081    -20.26937111   -3.80151054   -2.30232325
    1    4.40861135    3.91086431    2.21243587     -4.88457872   18.78797023   -3.33104759      5.51247712   25.97579764  -28.69310915
    8    9.15547804    7.72914038    1.12152782     17.15659373    0.59136194    4.18455755     -0.18502952    0.10523372    3.84286008
    1    8.41728595    7.12549281    1.30137094    -10.49707014   -0.96283107   -2.47203174     -4.22378179  -24.59424878   29.23564389
    1    9.87071010    7.25626644    1.59879817      2.15979321    3.97357183   -4.30637308     12.04640284    3.26699937   -0.53114094
    8   10.04049139    9.90256782    7.09213166     13.79167451   -7.64236667  -16.86636455     -2.11426833   -2.00864991   -0.89098473
    1    9.97168154   10.32919163    6.20363152      0.83419129    4.29618165    9.42900077     -4.71009960  -18.93798385    7.14720225
    1    9.45839702  -10.23198728    7.60551302    -17.25280982    8.78008529    8.05470103    -15.73693458   12.22766574    8.36186503
    8   -1.26826191    6.59516656   -9.25577407      6.10397352   -8.26513054  -26.32155791     -1.43224460    3.62427219    0.75253670
    1   -1.76783049    6.80609679   -8.48929652    -29.24357122   15.60587234   22.89523518      4.20151243   17.29734767    3.45935133
    1   -0.64240670    6.04754969   -8.79581048     23.53280513  -14.50506433    3.49461464     22.17331454  -17.87805271   -3.97470889
    8   -9.42377302   -9.15365411  -10.23500965    -14.03235268   67.24669533  -26.20242343      4.07154475   -5.10695337    1.30993866
    1   -9.01492395   -8.43905487    9.84679343     -6.54259840  -35.80816818   23.69772014    -10.86205207   37.69594490  -36.33560721
    1  -10.30074031   -8.65635173  -10.04751257     25.94024159  -29.32975589   -1.51971769    -26.27351405    5.33393438    9.83474128
    8    4.71776917   -1.75263782    6.98206123     -4.58306894   26.51819885    9.42740684      2.59131700   -0.92686336   -0.36138285
    1    5.31215670   -0.95769556    6.86337900     -3.28045180  -18.55265761    4.73311840      2.03318692    0.32790397  -15.29890260
    1    5.28199710   -2.49682428    6.75031156     10.42583378   -9.22416350  -11.18768518    -13.56819090   12.74538363   28.36833841
    8    3.34904181    9.68277779    7.04060986     10.46269735    1.83771687   24.05809727      4.51562321   -2.96975355    0.39497272
    1    2.63530048   10.08397058    6.55519119    -17.72315755    5.88460348  -19.38388166     19.05882719   -3.91114654    3.82673475
    1    3.13604570   10.11445939    7.89636840      7.28876460   -1.09009888   -1.76566580      6.25327840   25.76831563   13.63077505
    8    3.29669425    7.71988682   -5.45992126     61.19028446   54.80910640   21.53301393      0.70881437    1.42847593   -2.31041701
    1    3.69346192    8.58553633   -5.00553253    -33.82346151  -49.80116804  -29.52220913      5.62779393   23.32257237   -0.58561872
    1    4.11572509    7.51014171   -6.01814791    -31.16654891    0.48302485    4.84891134      2.66784540   -3.85613228   -9.62020586
    8   -2.79274809   -5.91085395    9.43263290    -21.15633641   -9.08047723  -18.36792150     -1.35425262    0.99798006   -3.14926604
    1   -2.79585610   -5.09514337    9.94223998      0.46476606   14.49975470    5.12017876     -6.71685801    1.88915907   -1.17713145
    1   -1.96179905   -6.28027789    9.71264194     22.48109710  -12.13432883    9.83128133      4.74986053   -3.06992298   -1.45343334
    8   -2.23680110    1.84111911   -7.64011196     19.09498423  -40.34195711  -11.23196809      0.88375691    3.85708309    0.92353807
    1   -2.41824796    2.47543852   -6.97657900    -18.05678360   32.32294073   15.85642992     18.28049945  -17.47875037   -4.40114374
    1   -2.78450736    2.05671793   -8.41600678     -7.47912276   11.30476018   -0.37728314      3.42025273  -10.72395942   31.61803076
    8    1.69443881    5.30451170    4.34556531      2.36806465  -21.73421168   36.07400597      0.20553002    0.46100250   -2.30670095
    1    1.84993205    6.04766798    3.75736830     -4.32704783    2.65465819  -25.10651308     -2.28679322    4.68563773   -2.13851202
    1    1.33783714    4.57857522    3.80136810     -3.43640699   10.89724671  -11.73879182     20.57017774   12.56348541   16.91585569
    8    7.07815850   -6.17111502   -5.03574488    -22.25239161   17.12711384    0.70439636     -2.36050156   -3.54760875    5.11412782
    1    7.85660505   -6.41678987   -5.49324932     28.28986439    0.04742176  -16.76825470      1.24850002  -13.23817210  -32.37485707
    1    6.83075657   -7.04165685   -4.72543821     -9.92500864  -19.67800694    9.81002469     12.66375162   14.81593345  -15.32728906
    8   -8.73400196    8.77301840    3.49361265      1.69284913   30.84568540   24.72140118      1.12177946   -0.49497135    0.56815824
    1   -8.75651480    8.00582560    2.93682870     -4.80757716  -24.23219562  -10.14709619    -18.50702289    9.55747379    7.48419721
    1   -9.05513585    8.42218173    4.36385844      3.36101141   -3.58376698  -11.98514092     -1.44452879  -13.54996530   -5.71673525
    8   -1.76024672   -8.03686490    2.81782682     20.03174717    0.93041762    6.53751454      1.47629049   -5.29931637    3.65719886
    1   -2.29741019   -8.65629332    2.30739804     -9.01114521   -9.22104817   -6.36397679      6.78598707    3.26937733   30.64345548
    1   -2.41153744   -7.33303419    2.95563218    -10.56615628    7.73328502   -1.96355041    -11.13361143  -12.96246055  -20.55825704
    8   -1.59458936    3.84781954    6.66573575     -0.13007798   44.69126443   33.81059929     -2.04354747    1.07303936   -1.82988906
    1   -1.40312126    4.58818007    7.37475488     -5.35861903  -44.65506400  -31.05117626     -2.90058160   25.63610276   13.33476034
    1   -0.75592585    3.33817091    6.70476490      0.43110921   -0.31656853   -3.83916563      2.49648878  -39.63627962   25.82108936
    8    2.86028370    0.88153665    1.70000396     18.08897739   29.82527556    9.28560011     -0.21447830    0.49100255   -2.07942565
    1    3.48468765    1.67685851    1.85460783    -22.18742381  -27.83226519   -8.97646769     15.89166488    4.29782194    7.78000925
    1    2.73636839    0.94886096    0.72311527     -1.65518136   -1.91814333    2.35134209     -4.98400110    6.57444456    4.67242688
    8    2.24388501    2.19115893   -7.88129711     87.42480766   40.40724170  -47.53303999     -1.70261863   -0.98165584   -0.51487028
    1    1.58512346    1.66130143   -7.70001099    -75.74949217  -66.09411851   17.73756338     17.00106487   17.89641902   -2.21845401
    1    2.09152745    2.78449879   -7.17480660     -3.10015116   29.67210638   28.89032127     -9.04716527  -10.24525465   -7.01626915
    8    6.19921447    0.02593068   -7.58306703     10.09086273   -3.32828561  -20.01746288      1.75244175   -1.45280287   -0.34373684
    1    6.76251212   -0.38196634   -8.29555992    -13.99198072   -2.90956547   16.50884902    -23.19663774   -6.85868870    1.72232322
    1    5.78058497   -0.75758020   -7.16071234      0.67661206   -0.47852678   -2.24100939    -12.25201162   15.42843393  -25.68910298
    8   -0.54992402   -7.14734415  -10.30261237      6.63834153   -0.10542729  -13.75887066      3.48847538   -3.94220414    1.90767427
    1    0.38638888   -6.83509266  -10.11968871    -15.23964611  -13.18694150    2.93798266     10.58459437   22.10818594  -12.30219459
    1   -0.40658167   -8.05743984   10.01609179      3.63070632   10.18268853    9.24964543    -10.55469296  -10.59483297   -1.43604135
    8   -3.88960521    0.24573802   -2.39626221     10.12692633   -8.09980220    6.26327495     -5.33213557   -3.08632781   -0.75690341
    1   -3.86748931   -0.45087705   -3.12225904      4.74021598   11.99323095   23.18369800     -2.79484990   13.05333993    5.02983037
    1   -3.09231385    0.06620759   -1.80730330    -15.74545352   -7.14680212  -26.28287482     17.72911973  -11.15351546   13.90215012
    8    6.97998351   -9.75105033   -6.67762913     10.40701666  -16.88738526  -35.15280343     -3.46872443   -1.52275328   -3.65726923
    1    6.54615812   -9.56485360   -5.87019045    -14.06411449   10.43945191   34.01555272    -11.43296286   13.31606524   31.75432414
    1    7.86991057   -9.37093279   -6.50083522     -0.42082144    5.16682723    0.46518066      5.44153732   19.19527552  -21.37765931
    8    1.73153218    3.80328466   -5.80699082     28.50292290   -9.84338340  -37.78934356      3.45329438   -3.73257567   -1.09864711
    1    1.07873161    4.07488667   -5.23466789    -44.96826297   13.20352175   34.21625890     -7.94868242  -12.86614024    7.46481856
    1    2.48234165    3.73616704   -5.20421003     14.01559020   -3.05573208    7.00974969    -10.39872701  -33.45361075    3.29189004
    8    6.55023451   -0.63766631    2.65464742     -5.65702276   14.73744077  -15.49426280      4.42853031   -1.15001528   -1.00481394
    1    6.92190644   -0.08389585    1.89454661     -0.90382346  -16.56342375   23.17859974      0.64693861  -20.20091417  -12.43601658
    1    5.65505102   -0.83218846    2.28857112      4.48134550   -4.94222127    8.62834952      7.32580221    3.29096194   -6.93941722
    8   -5.15149809    1.77164488    4.99077577    -39.92704516    2.19205049  -27.96251688      2.03715313   -2.77342214   -4.01492205
    1   -4.67389977    1.56146627    5.76611426     18.77955696  -11.03346354   29.11615610      7.60833671   -7.56655209   30.23668193
    1   -4.58986436    2.45571731    4.61875167     13.33205855    7.49109286   -5.18218190    -29.79654133   -6.11461424  -11.53790615
    8    2.42104903   -5.29687977   -3.11707714    -34.98348192  -26.30894085   14.13282772     -0.11980189    4.55379046   -1.25082110
    1    2.02358284   -4.99187465   -3.95762704      0.13616590   -2.13439148   -1.68505455    -20.56595453  -12.49822711   -8.35117091
    1    1.61820676   -5.74817852   -2.67662985     22.79487076   16.11647939  -17.89883385      1.71075128   -0.43765786  -16.61487372
    8   -3.95101849    2.53793633   -9.63195075      5.65175267   -4.32386994  -61.10323647     -2.80366873   -2.41359280   -2.56013378
    1   -4.24153048    1.84356081  -10.34769267     13.40156605   29.43851209   39.35598476     12.14721464   10.97018826   21.33310368
    1   -3.66981909    3.32013602  -10.24235743    -17.43490942  -31.95565690   25.25253491     16.42466888   -5.01958465  -10.62447102
    8   -0.88402050    7.71111851    3.92132788     13.77095993   -3.21658429   34.72377740     -0.05154567    6.12627594   -3.91783341
    1   -0.40803182    8.53327967    3.88223453      0.37836894    9.85322249  -12.55998825      8.18214718   -7.58068211   23.48967123
    1   -0.57022942    7.45126210    4.84042983    -11.37775008   -4.47339285  -25.23306507    -31.13322448   -4.93042433    3.67976566
    8   -8.81638213   -5.32279101   -1.85340380    -16.17390153   25.20517573   29.45656307      0.06673440   -1.34127743   -0.60067009
    1   -9.08557067   -4.65397353   -1.10214143     15.49921742  -26.84940973  -39.81203068      7.31777171   13.02736542    8.60960331
    1   -9.34972732   -6.09914017   -1.56848418      1.28709883   -1.11192198   -0.20486899      7.09235339   17.51227280   -4.32886296
    8    2.64203984    5.75473207   -9.76451295      5.73173426   36.08273101  -65.74972713     -1.06734118    2.05683952   -3.60993290
    1    3.45221486    5.42756246   -9.42904719     36.46106751  -12.58406887   14.86885542      9.66451992   21.19534171   -2.95214949
    1    2.05835420    5.44605219   -9.15363623    -46.14247476  -22.87842454   49.85129275     13.37472190  -10.10937971   18.33940501
    8   -1.73116204    8.63261421    9.71797399      1.40429432   22.12651173  -35.49398067      2.63981621    0.60519801   -4.00441860
    1   -2.64259336    8.94660130    9.83135523     -3.47850423    1.49342745    6.17570852     -2.71077936  -27.68490060   -3.99503102
    1   -1.70335095    7.98079733  -10.29139544      7.63055013  -22.27852332   19.64855943    -14.71483867    3.01647266   -0.26540637
    8   -3.48075892   -1.76925829   -4.26792763     37.74958457   13.65195340   10.03851367     -2.19208104    1.67004256   -1.23197983
    1   -2.53366571   -1.60028304   -4.00855452    -15.67862628  -14.03769920    5.87384385     17.31824124   -8.30089063    0.94886690
    1   -3.34393927   -1.37728352   -5.13988554    -19.37556264    1.24690079  -16.32845034     25.45760634    2.94123438  -10.64038342
    8   -8.71274523    2.97948686   -8.53272851      0.58351868   -5.27773894   10.91387104     -0.13307170    0.80231138   -2.14373091
    1   -7.74136258    3.03701905   -8.39210661     -0.81547755    3.36594271   -1.68956416     35.06913842   -2.37376633    6.59937355
    1   -9.02289384    3.24522311   -7.63348881      1.06846318    1.32115162   -5.87177683    -13.95592947   14.24842339   -4.10205647
    8   -2.69135452    5.90816492    3.10679433    -35.98223108   -9.92545816   22.46942332      0.02244618    1.15232873   -0.30845968
    1   -2.06079007    6.54251477    3.45509909     15.27719563   16.39560998    3.41548863      3.55662139    9.73580285    4.59612049
    1   -2.26637516    5.61312483    2.31859904     13.78058462  -10.60667853  -23.08929330     -5.76332384    3.88087895   14.47096062
    8   -5.06191136    5.80980866   -6.99351429     10.73242306  -25.27361976  -11.69763045      1.42686721   -1.91508643    2.99886557
    1   -4.27479251    6.33401585   -7.11477708     26.72746028   -2.25249216  -13.00480843     -2.45920304  -13.23459388   -4.58202197
    1   -5.49808152    6.51882781   -6.56644165    -34.44076685   17.61708720   20.83822461      1.29697019   -5.53476662   14.96183519
    8   -0.82573509    9.02003428    7.06414486    -20.84431633  -18.63998990   40.59409766      3.31478363   -3.32169049    2.25323016
    1   -1.12881003    8.79683874    8.00561751      7.22842500   19.51273551  -23.72367882     -5.09896935   -5.26414581  -27.93843083
    1   -0.61446944    8.09055535    6.83471291      8.34106851    4.75123612  -11.68666653    -15.08123897  -12.58242301  -14.49801356
    8   -9.12580401    6.51770347    2.04890137     27.69466407   -0.65427635  -14.02935636     -3.66902406    3.48587890   -0.37743234
    1   -8.31701391    6.52941490    1.46753009    -19.72070840   -0.41191065    6.53027937    -15.54000365   -5.99916753   -5.71242428
    1   -8.84699770    5.80104178    2.66505838     -9.21371843   -1.98761633   -0.08458630      8.21749732  -12.77862994  -29.18931238
    8   -4.04052440    9.23577259   -9.65403173     11.89430920  -28.70793793  -38.29217057     -0.06549097    1.95045297   -0.60216950
    1   -4.52844389   10.03149415   -9.76733645    -20.51696459   29.64335852  -10.93179500    -13.39684107   -8.73132571  -16.25671144
    1   -3.94481054    9.28118779   -8.74035918      8.05850387   -2.49638481   49.51539242     -7.77034744    7.80151497   -0.66463630
    8   -8.83211855    9.29731713    9.03818349    -10.75824753   43.83630668   28.02798189     -1.34606161    1.34729663    0.95960980
    1   -9.53324489    9.43642551    8.38301557     -4.74099813   -6.77326383   -9.04896888    -13.22537301   11.97981397    1.35446355
    1   -9.06747622   10.11077105    9.62858239     14.09341960  -36.66884755  -17.75649954    -15.10633584    2.68171817    8.83467058
    8    0.61462454   -1.23489337    4.63232093    -37.58365928  -49.47425706    1.58296046      0.32441705    1.46142569   -0.61369181
    1    0.81925299   -0.57380986    4.05673040      6.48378818   43.49398540  -42.53536769     10.33991175   -1.51050559   -8.82406832
    1    1.17451042   -0.96700895    5.31247130     28.74947012    7.01700356   44.45410674    -13.65379871  -37.47680631    4.26768422
    8   -4.56754164   -9.11164890    6.58736034     16.82435243  -72.05263388  -29.78901898     -0.72071703    3.76031425   -3.78777186
    1   -5.42098270   -9.60473635    6.86680737     38.16070521   10.82860508   -6.67878902     -7.15482395   -2.74222197   11.93910799
    1   -3.96706852   -9.87907658    6.16270389    -50.85050814   51.12605092   38.06594945    -25.85137355  -13.14719680    2.94577508
    8    0.32448467   -3.52318915   -8.81269487    -34.34929410  -24.20830035  -62.33282087     -4.00368051    1.64580257   -3.05847549
    1    0.45342816   -2.85746530   -8.19180472     13.68551286   42.19695298   33.99544172     -9.58600623    9.39703171  -13.58041843
    1    0.77156199   -4.24663181   -8.45067180     19.65351964  -27.68446477   18.53990113      4.50512791  -32.63320897   -4.75709751
    8    2.07323196   -4.90381258    5.68301172     17.07420579  -11.08656052  -18.38050760      0.98707341    1.29843679    0.86300845
    1    2.56554181   -4.97895689    6.50171352     10.41651883   -1.89227296   13.53681011     13.98498463   11.37457652   -8.76132945
    1    1.32714414   -4.43725999    6.01439267    -26.72877910   15.14455422    7.68237468     17.64042079    2.45907286  -12.01214911
    8    4.80610790    1.67157409    8.79966539    -44.09592358   38.00294772   44.25845613     -0.74180148    0.66666526    3.31337389
    1    5.28806545    1.18133694    8.25693801     32.54545898  -53.94470922  -67.62061910     20.20999307  -23.07722214   -7.04003406
    1    5.57019446    1.88276945    9.32326500      9.73340379   19.40270684   26.12204879    -13.05033157   -0.74160831    4.40274388
    8    9.00353654    1.38928441   -4.13679411      3.25680524   -2.71702983   11.55540468     -1.24112068    0.01688372   -1.47257679
    1    8.64400979    1.52790194   -5.04647087     -3.52891368   -6.57706639    2.36574729     -7.52573773   -0.06065310   13.92333269
    1    8.30757619    0.83226954   -3.69816400      2.21125995    6.62797809  -11.58512041    -19.71028267    6.94519513   -7.68982372
    8   -9.74155268    7.68387159    5.80225416     -0.24853594   19.04419784    3.91373198      1.21512399   -0.35907698   -2.01663948
    1  -10.00777166    8.51673024    6.29294480      6.57682596  -21.67189870   -1.34433967     -9.50866779   15.12942670  -13.38227169
    1   -9.25601781    7.16373370    6.47981528     -7.30521512    2.62560686    0.49118538     -5.41088003  -17.25666647    5.94475357
    8   -8.36489339   -2.70203758   -9.26145504      8.96334342   29.91485131   14.94616990      0.71294123    0.58215053    1.95049334
    1   -7.47049200   -2.71668800   -9.69834697    -12.65953277   -1.81902489   -2.27301865      0.54376910  -12.40162843  -15.81114919
    1   -8.24822007   -1.87963913   -8.70062206     -1.23244291  -20.36590339  -13.65454104     -0.25978329   16.23970422   24.64849230
    8   -7.68565677    4.81414524   -3.77191459      4.66475807    0.66908590    5.65384465     -3.14885869    2.13012009    5.17755515
    1   -8.07873818    5.23184416   -4.50790697    -29.64199001   -0.21313212  -27.39367176      7.65336675    1.97834522    1.08795247
    1   -7.04990755    5.53434987   -3.69125833     16.77181145   -4.47827422   24.09424236     16.48189081    4.73483643   -7.15877449
    8    6.17160362   -8.64529756   -4.23753711    -42.18850588    1.66961264   37.28136175      1.16923125    1.54758515    2.40215073
    1    5.31754829   -8.26592443   -3.83758825     28.56527075   -5.83820143  -20.15006340     -5.41101621  -14.06013374   16.37272087
    1    6.22477797   -9.40807942   -3.59918406     10.83391608    7.99283360  -16.78891651    -23.95912804   20.45310021   -3.60653817
    8    3.45167796   -2.29775774   -8.92307271      3.61933022    0.63459155   -5.08582710     -4.41083461    3.77575812    4.96781297
    1    2.62130221   -1.91014773   -8.60190993     -9.24446399    2.92593626    0.94612959     15.80707197   -5.22774226  -18.29373591
    1    4.00044251   -2.13566648   -8.14475448      5.70181180    1.43279776    8.43046875    -12.77504781   15.10594645  -10.95069536
    8    9.95140320   -4.24694821    6.18227277     17.28195638    4.21950938   11.01617174     -2.37516675   -0.41265782    3.20599617
    1    9.41724696   -4.94805193    6.60117663     -3.47087999   -5.36049721   -0.26961335     15.49177508    0.36765428  -16.73230611
    1   -9.93234542   -4.28473622    6.76082143    -11.14830815    0.81205415  -14.09748408     21.98388929    5.26737581    4.87453725
    8   -0.88124157   -0.85862561   -3.75518713    -14.28834838   17.15342498   45.91138802     -1.84534246   -2.50302901    0.09333450
    1   -1.09376230    0.08944913   -3.80755549      9.33272727    2.38422253  -20.47369716     -3.96566302   17.58692022    4.52445386
    1   -0.93644901   -0.84256538   -2.74637309      4.03825107  -17.67401742  -24.17009537      6.20522054   -1.61582015    0.52552399
    8    0.09024119   -6.41740117   -2.09924720    -47.20083181   50.51311766   26.76607472      0.13180496   -8.11739625   -2.66324035
    1   -0.48492085   -6.36189570   -2.91895448      5.83032819   -5.38850972   18.18658555     19.46946425    5.53042080   -4.42959505
    1   -0.51162274   -5.84261743   -1.43573712     39.06436465  -40.13139018  -44.20569569    -22.12525892    9.84606055    9.62742211
    8    2.92102203    8.26244629   -0.39174591    -26.26569146  -76.17758444   -5.58354845      1.00870378   -0.50920703    2.66378184
    1    1.98258339    7.85798733   -0.24874413     38.44024697   26.78374940   -0.63907543    -21.05975198  -14.88254422    6.84449798
    1    3.40573197    7.36020346   -0.52768122    -16.56712985   46.23661802    8.15088111    -17.48554319   -5.26590415    6.00267216
    8    0.57475407    4.99461446   -1.73325855      5.12795192   17.01340118  -14.63295438     -2.00925252   -2.28180375    1.01250516
    1   -0.20342688    5.60027551   -1.70873627      4.95116161  -12.18141103    0.61663816      2.21849181   -2.40781416   -2.49578586
    1    1.14457293    5.45249310   -2.40731381     -6.12551003  -10.03248409   12.14000572     -4.00965518  -13.12370135    4.85472991
    8   -0.36510281   -7.84232750    5.14754369      0.81131373   18.91804257   30.43124750     -2.81313780   -0.28162160   -0.61378002
    1   -0.96840859   -7.99244726    4.40409161     -9.68959487    1.82142720   -6.48404079     26.18519226    0.63894103   12.97285822
    1   -0.82149460   -7.13558040    5.70378133      2.20492010  -21.79930446  -16.17584689     -5.71374691    9.30094614    5.73183239
    8    6.10084941   -7.58658020    3.13651716    -40.81967761  -25.94722551    3.48649722      2.52291907   -2.99564946    1.99551173
    1    5.31555509   -8.09503134    3.54980275     35.39950404   20.41044775    0.28206804      5.74119748    6.20189652  -34.47916591
    1    5.79469380   -7.67822841    2.21146039     11.99387217    1.84972197   -5.51954288    -16.39495453    3.03994794    9.90502099
    8    8.61425164    1.20870260    8.56004119     17.49393681  -41.30596178  -30.15206978      3.25175023    2.94207736    1.51419452
    1    8.11801911    1.51952149    9.27596191    -27.38331675   15.45749553   36.63309362      5.36470095   -1.51983638   11.81289802
    1    8.87240680    2.04216145    8.19961178     12.96187662   25.53197248  -12.10557003    -11.75646287  -29.38255174  -19.54973761
    8    3.87299236    3.75737311   -4.20624111    -38.91086788   26.95804987  -10.14400945     -1.46473245   -0.93873400   -3.01933389
    1    4.73803436    3.86961608   -4.58542942     25.82056629    2.08236466  -12.34571700    -12.72834482    2.62305532   26.20251934
    1    4.03707533    3.01832422   -3.66582110      9.87391861  -32.32610932   27.66277464     -4.21419814    2.85127434  -21.22932259
    8    6.11230857   -8.26754331   -8.78719272    -28.35405550  -30.74686499    1.49895750      1.27931463    1.61640476   -1.43881161
    1    6.31556639   -8.80900544   -7.97841444      2.04903406    8.48041381   -8.95679462    -18.36279439  -11.18499272   20.14191939
    1    5.27064845   -8.76628670   -9.08061514     27.43241632   20.61089656    6.98950903     -0.10462820    6.21102672   15.76491752
    8   -4.70039840    0.55711524    9.30615888     23.84819705   -3.87428717  -32.92397381     -1.61261107   -1.49203813    1.15147479
    1   -4.32012203   -0.38206297    9.26836310     -9.97961699   27.04994639    1.28890023      0.77940671    5.86587364  -14.01055610
    1   -4.32108747    0.96390825    8.45158770    -10.31702976  -20.21855621   27.25038856     -0.84526613  -12.55492479  -26.22634342
    8    4.93178027   -2.15830821   -6.51216252     -1.86237130   38.39814225    5.84160191     -1.28163887   -1.20670603   -1.54009432
    1    5.02324263   -2.21721814   -5.55328994      0.99897485   26.50691269   16.12942585     -4.71913141    9.08449507   -0.49155918
    1    4.96376575   -3.06990349   -6.54699730     -0.07664589  -59.60529695  -23.38591786     20.87275506   -6.56920355   11.48526531
    8    6.02450840    9.02322054    2.42437685     16.61039184   -4.73421795  -76.80120057      2.36427679   -0.46441601   -4.17129923
    1    5.36810374    8.87754664    3.02445309    -42.97801006  -10.03674918   49.23541092     -1.74389537   13.36323998   -8.87361845
    1    6.74449573    9.27731323    2.95788951     28.22646394   13.18461227   30.48852434      0.57027787    9.84391913    4.76057949
    8    0.22397760   -8.85293209   -7.01341029      0.28795406   38.16250869   27.72236448     -0.63033943   -0.54110082    2.05755971
    1    1.17122086   -8.86472991   -6.76037197     -0.45211236    2.79520325   -2.19844591      0.13237901    4.21425007   -4.17641662
    1    0.20238232   -9.61375629   -7.53786561     -1.09725369  -40.82474045  -26.33536222     -3.91643066    0.72016641   -2.92464516
    8   -0.81194826    4.49878702   -4.74495892    -32.65837566   82.69147698  -17.86219683     -1.73378920    3.83404837   -1.30320819
    1   -0.83549355    5.54570251   -4.68969533     -1.99005339  -64.98089343    1.98745009    -13.01966282   13.68873941  -14.51396803
    1   -1.72268949    4.34756198   -5.15925632     26.11256415   -0.03373714   12.36548784     21.94164245    4.89504369   12.41242638
    8    5.06682981    2.59427316   -7.63727004     48.27792094    0.56445424   -3.68200249     -6.33979802   -1.81864858    1.67328728
    1    5.47441061    1.68579126   -7.74662183    -18.59182387   11.73428664    4.89403322    -15.23152096   26.75677775   28.94212681
    1    4.13745038    2.49895812   -7.71893349    -31.30901997  -18.14967310   -2.59830038     26.68365175   -6.87063265    6.67440572
    8    2.70588563    6.05369442   -3.39167795    -13.19261456   46.24152178    3.19900480      3.75917199   -0.30119455    2.83032211
    1    2.98915484    5.32148065   -3.91663010     13.48919746  -25.85379691   -9.63622313     21.08177451    7.04805199  -27.93886873
    1    2.85456812    6.79976380   -4.04876518     -3.55945856  -18.09804992   13.35442625      8.63173407   -4.81113077   15.14803877
    8   -3.22938046   -3.03281523   -7.52490952     28.92066423   14.17914226    8.34964782     -1.68943153    1.50535976   -4.63269770
    1   -4.12649818   -3.32327294   -7.63907590    -25.35264235  -10.21046449   -3.15838066     10.47602836    8.36122365   13.94360595
    1   -3.38835079   -2.12179111   -7.18380082      2.95780651   -1.56749099   -4.15815618     -8.90792467   23.06584164    2.78522785
    8   10.06318426    0.85429700    5.09674692    -47.79376291  -25.90963778   -3.56386923      2.00817609    2.13182519    1.88339038
    1    9.02687897    0.98610845    4.90355185     66.33889784  -13.67362877   13.97622461     13.67801596    1.02550979   -6.20473360
    1   10.14943726   -0.17254533    5.19938809    -10.80879180   45.19206347   -8.79651906    -21.91742963   -7.08737651  -13.76783888
    8    7.18590105    8.82724682   -8.48077312      7.16263221  -14.38650758    1.32726556      1.69074137   -2.17399162   -3.92596593
    1    7.07528697    9.58062289   -7.88237503     -0.25143652    9.02893002    5.70781395    -14.17616677   27.38733953    4.60645255
    1    7.78704457    8.24752795   -7.93355337     -6.81131910    8.19461147   -8.50531858     -0.17809092  -28.38399947   13.43309168
    8   -3.00581513   -3.65730129    2.99445384     21.51640259  -23.53389415   -4.30833288     -2.54729608    0.72322598    0.14262848
    1   -3.42170272   -2.90166195    3.37418983     -8.92262842   26.19155921   14.48452072     -6.28830481   25.42645741   -0.19400791
    1   -2.15804325   -3.69840121    3.52652184    -13.49685665    1.93855174  -14.55978672      1.24430677  -10.20414016   -7.98718225
    8   -7.60146891   10.23878170   -8.64697720     24.63247109   19.60417900   -0.98828277     -4.19579383   -1.51538431   -1.83385928
    1   -8.15045978   -9.77361313   -9.05153376    -23.69481108   -4.30808233   -9.02874097      8.53476148   -3.25779119    4.91883577
    1   -6.75987992  -10.03180305   -8.94406985      1.31030871  -14.03032281    4.21065777     33.64108317   -1.20028957  -15.27078093
    8    8.77687771    3.61741478    1.45991101     20.70605750  -14.42441425   41.97918884     -1.13252033    1.96602734   -1.65629675
    1    8.59467469    4.13565672    2.28802826     -3.94177550   -4.26937946  -15.57812489     -5.49356867    9.53286352   39.85161786
    1    9.34064691    2.89289655    1.87949570    -15.89233158   16.21161271  -19.25184637     -5.17608710   -0.87910127   10.33579286
    8   -8.36694040   -4.23323937    7.48251612     10.71152458   -7.63480814  -16.09905143      0.76631303   -0.00324238    3.16897752