 BEGIN_INFO
   #
   # This is a XCRYSDEN-Structure-File
   #
   # aimed for Visualization of geometry
   #
   # Launch as: xcrysden --xsf HICOLM.XSF
   #
   #
 END_INFO
 # estrutura final
CRYSTAL
PRIMVEC
      21.03256089       0.00000000       0.00000000
       0.00000000      21.03256089       0.00000000
       0.00000000       0.00000000      21.03256089
PRIMCOORD
  927    1
    8    6.64166814    5.33334282    4.50302326     18.61802879   -6.02998303   12.48924047      4.37810663    4.31336545    4.36069968
    1    7.21610298    5.29015933    5.32777060    -12.87630440    1.99352754  -17.41177946     16.73234755   17.34078673   16.55516054
    1    6.18995008    6.18965208    4.64286185     -5.16452505    3.17363843    5.94568982     17.03654291   17.39667761   17.50729408
    8   -8.87682986    8.63414672    3.17136545      3.66626889  -20.49793105  -15.93211052      4.33935596    4.27586948    4.28614246
    1   -8.24822167    8.12503561    3.72499244      0.44085970    5.55538360    2.60702802     17.28164859   17.47725908   17.37210103
    1   -8.76190078    8.07546501    2.34844939     -2.21959058   15.10791155    9.48119572     17.15795533   17.89839679   17.67062883
    8   -8.62482784   -7.68731444    9.97272718    -14.52817757  -23.64180934   17.24388761      4.29094885    4.26791170    4.37586248
    1   -8.50907941   -6.90268043    9.44030569      4.86610882   17.60118542  -14.02146972     17.45719782   17.99215251   16.66488142
    1   -9.59964967   -7.62413069   10.17142092     13.08683374    4.06209986   -3.69336369     17.81334834   17.42088034   17.09793625
    8    1.29196342    9.66845325   -7.07589030    -16.21923892    5.71597223   -2.62427075      4.28798581    4.34490772    4.32334854
    1    0.61949937    9.71460834   -6.35259481      0.87851885    0.89087457   -1.90425499     17.28861353   17.29116900   17.17551285
    1    1.71405921    8.83083221   -6.84818169     10.74850159   -2.63309262    1.72217004     17.69670191   17.14750647   17.32236976
    8   -7.45889548   -6.21577897   -7.65770469      9.96787353  -10.39927557    8.06071054      4.35501948    4.30254857    4.35180890
    1   -7.12411322   -5.47718219   -8.18073515     14.22086221   11.24791705   -8.98973906     17.84941530   17.73095297   16.87262369
    1   -8.35996288   -5.90600257   -7.66497847    -27.15584958   -2.19546043    5.09795384     16.13773386   17.15743308   17.46505330
    8    7.30064503    1.39667384    8.93139167      5.28157668  -16.06526276  -11.55799829      4.34258917    4.28576183    4.29910984
    1    8.13158595    1.94768341    8.95146635     -4.60202392    1.27263107    5.13405216     17.08813993   17.32212723   17.46695906
    1    7.66021190    0.61618116    8.42855166     -5.61422875   11.66691584    6.91155983     17.01430570   17.75599467   17.55183775
    8    5.95387080   -8.52701891    9.19637853    -21.17131073    9.25364004  -14.85249618      4.27368656    4.35380688    4.28880012
    1    5.14112676   -8.24548717    8.66187773     18.50053713   -9.83761118   19.02536838     18.04139091   16.83863741   18.05750715
    1    5.80779266   -7.99197746   10.00583297     -3.73363384    0.10117902   -2.50720501     17.09405211   17.27270135   17.17213650
    8    6.55435901   10.49654134   -3.57896068      2.55065011   16.89595978    7.18263232      4.33594347    4.37239867    4.34902795
    1    6.60218535   -9.56053880   -3.44814424     -9.46373046   -3.97443627    4.70127068     16.86621514   17.11347944   17.45007829
    1    7.43464254   10.40011998   -3.96906855      1.38915760  -10.65309209   -9.75143868     17.32041188   16.81442855   16.84441780
    8   -0.58160498   -4.06995473   -9.14332069      1.00751754   13.85564717    8.38429048      4.33130626    4.36498399    4.35042657
    1   -0.71650646   -3.20041696   -8.67532371      5.92301183  -15.10529939   -7.53111125     17.50240251   16.64728276   16.95571054
    1    0.31770552   -4.33585759   -8.82372971     -6.94589920    0.75248825    5.84849601     16.98425336   17.28583155   17.50670395
    8    0.11031264    3.84381070   -4.72970325     -5.68610369    9.69650345    0.60859182      4.31493967    4.35441029    4.32941626
    1    0.05518999    4.58152038   -4.07063537      2.34594031   -8.35726216   -5.06343786     17.34843693   16.92936184   17.06110517
    1   -0.35361160    4.24466234   -5.49433712     -1.57558773   -1.19696342    1.87550629     17.19598102   17.19747870   17.34679830
    8    3.55580384    6.35003773    7.14326638     -6.60427690   -2.48773745   -5.37313051      4.31084843    4.32246489    4.31435519
    1    4.34897483    6.54914196    6.60873923      2.81972666    2.91063397    1.76446812     17.38151055   17.37784791   17.32349110
    1    3.01259349    5.96709607    6.41494644      1.62012865    0.29168567    6.64438349     17.33940110   17.27960835   17.55913543
    8    8.74739443   -3.77080538   -2.86822914      1.10960048   21.24514960   -6.99693057      4.33261330    4.38529955    4.31242722
    1    9.61057673   -4.06661469   -3.20801565      5.58060814   -1.99089463   -2.34956206     17.49004991   17.16958328   17.15361019
    1    8.51218168   -4.52800136   -2.33362610     -6.53657352  -14.22332752    6.51018742     16.98344309   16.67025478   17.51787852
    8   -6.90114085   -9.99824251    6.41683879     -3.27950413    3.54422312    2.82460407      4.32182997    4.33755253    4.33639190
    1   -6.92466400   10.06975362    6.26718639     -0.72744878    1.44745643    3.37645842     17.22427117   17.33985083   17.39628089
    1   -7.22431419   -9.94723185    7.35061469      2.35348630   -5.62845893   -6.94354376     17.34661415   17.02193658   16.97933343
    8    0.29436152   -6.02171616    5.59672099     12.13944224   -9.00436767    1.02874329      4.36022628    4.30476892    4.33153536
    1   -0.23045669   -6.71061219    5.15390088     -3.28197470   -3.60436025   -0.78416605     17.14074299   17.12660542   17.23910788
    1   -0.25705374   -5.24785727    5.38784552     -4.88562875   11.04738379    3.21334122     17.05336085   17.71634201   17.38905897
    8    0.22885625    7.29848242    8.80104939      6.34666033   -1.48697710    2.57946064      4.34473933    4.32590216    4.33547735
    1    0.73438690    7.26059039    9.64408576     -4.29554754    0.79861781   -0.09384644     17.09446117   17.28794597   17.27193832
    1    0.90815987    7.69702191    8.22689831     -4.82443399   -1.12240274    1.09003571     17.06374960   17.21122351   17.29633592
    8    5.44569635    3.02257623    3.55436304      1.26851216    8.78571015  -14.83672584      4.33261680    4.35105888    4.28933805
    1    5.74409900    3.93779640    3.75213483      2.60078188   -2.61321353    8.09204154     17.37046917   17.17475693   17.59427272
    1    5.36293436    3.09785091    2.56484276     -4.54015550   -7.38993010   10.43527773     17.06740390   16.94664533   17.70941937
    8    4.78335274    4.52192194   -5.37574083      3.96617575    8.05876138   -3.08849462      4.33973538    4.34897865    4.32150593
    1    4.00509899    4.01827510   -5.09135122     -6.60169216  -13.22937209    2.57029038     16.99736583   16.71571622   17.35399239
    1    4.62447677    5.31260842   -4.83731030     -0.76836144    7.97223864    3.19133408     17.21636204   17.60658498   17.40140811
    8    8.67685070    2.62079706   -6.00740033     -1.84332594   12.45075110   10.33002760      4.32504238    4.36076168    4.35604288
    1    8.85925027    2.34215049   -6.90244499      6.92870847   -0.54603177  -22.32127513     17.53898900   17.24218770   16.34503920
    1    8.28571495    1.79186140   -5.68791378     -3.56530386   -8.43699733    9.45946672     17.11249935   16.92202065   17.64559176
    8    1.71648712   -4.99784476   -8.03535784     12.90961732   -5.36923056    1.39292167      4.36218149    4.31385920    4.33257343
    1    2.51291832   -4.50938475   -7.67361229     -9.45728841   -8.25915747   -6.82801145     16.89031963   16.92475769   16.98192881
    1    2.09437439   -5.87895094   -8.31407429     -6.32597767   14.19687569    5.29527983     16.98687625   17.85985170   17.47946202
    8   -1.90794799    2.27318900    0.08704714      7.61152541   -0.52438542    0.66500216      4.34837699    4.32724189    4.32981068
    1   -1.97972642    1.53875395   -0.55981421      1.03306249   -0.02731311   -0.21557883     17.29810291   17.27770481   17.26618328
    1   -0.98159445    2.12858906    0.39913856    -10.45420805   -3.30904234   -1.43770843     16.84276567   17.11364416   17.20235805
    8   10.07552425   -7.06035163   -3.55122377     27.21488631   19.31861087  -18.56759594      4.40067082    4.37863707    4.28108811
    1    9.45532846   -6.78735963   -2.86709430     -7.21241006    5.42656237    8.83674377     16.95087535   17.48567347   17.62624222
    1  -10.38450404   -6.22642154   -3.65359069    -19.64283617  -20.88062542    4.40450740     16.45030817   16.41013320   17.43863536
    8    4.15313137    6.67868693   -3.63362749     12.87142116   -8.57948462   -7.12539243      4.36296933    4.30767727    4.30952789
    1    3.59528995    7.10047286   -2.97842929    -14.29747295    5.81504560    8.03428434     16.65487127   17.49936435   17.59961729
    1    4.90510737    6.43578200   -3.04771289      2.40719902    2.84378484   -2.99171729     17.36891739   17.36749801   17.14731261
    8    9.93451896    1.68869800    4.69795731      8.61346670    1.48785809    4.90961392      4.35050209    4.33384453    4.34243767
    1   10.27895323    2.23707096    3.95792422     -3.79123926   -0.68864502    0.93909586     17.10098010   17.22642496   17.29141942
    1    8.99677702    1.55812392    4.45645577     -3.62679696   -0.71450427   -3.19222684     17.13004419   17.22468513   17.13135920
    8   -3.55295295    4.84523696    6.69843823     12.47080162   -4.48010737   -1.66362993      4.36149908    4.31835753    4.32365084
    1   -3.31821479    4.61134925    5.76860463      4.51968009    3.93544021   10.12062076     17.43668986   17.42169842   17.69421377
    1   -2.68599308    4.74498560    7.18979259    -19.18873763    2.79997000   -9.84630526     16.48025317   17.36667178   16.85607400
    8    4.69578054   -3.01821581   -0.84725533      7.81615278    3.48966030   -2.93579787      4.34867194    4.33896418    4.32119354
    1    4.35690396   -2.89578255   -1.75331175     -0.88521350    2.10892508   -1.98501491     17.23054465   17.34031374   17.19236639
    1    3.89716388   -3.37723419   -0.43566426     -8.82734757   -3.69791782    7.22063342     16.90269976   17.10522598   17.55175711
    8   -1.67647932    4.78644746   -6.62026848     10.13659880   10.96370473   -5.44610801      4.35575449    4.35648360    4.31444324
    1   -1.93876915    4.03654792   -7.20930958      0.98983157    6.55395485   -4.10893965     17.30256794   17.55132287   17.10654264
    1   -1.20313168    5.40291352   -7.25862686    -12.08888212  -12.05006205    8.04132506     16.75709931   16.76158644   17.58489911
    8    1.48069603    8.87794497    6.05229660    -14.61371774   -6.09768186   -3.01700677      4.29008827    4.31353699    4.32053435
    1    2.16967148    9.11121727    5.40984159      5.92736824    0.42387764   -4.13021638     17.50791382   17.27381655   17.08216027
    1    1.92620098    9.03763673    6.89761191      4.77152200    2.19184038    4.57252282     17.47262783   17.35222414   17.46954798
    8   -6.94615855   -3.81995972    0.11077684     -7.72812557  -12.22539745   -9.21982626      4.30851519    4.29585028    4.30457614
    1   -6.55051396   -3.13235421    0.66660840     -1.87692345    9.25253732    8.89314077     17.18909230   17.66311527   17.64893234
    1   -7.53091593   -4.31103785    0.74491139      3.63460753    7.30761090   -0.07575573     17.41203603   17.56530007   17.24749315
    8    5.43049088    8.58895207   -7.80345040    -21.08789792   10.69666305  -12.10340532      4.27408517    4.35872835    4.29842210
    1    6.14357553    8.06374244   -7.43358109      8.62412400   -7.24377314   12.26095310     17.61978859   16.94357675   17.76767162
    1    4.68289538    8.44494013   -7.17628819      7.04658647   -1.63735431    0.38471721     17.55153419   17.18565741   17.26568288
    8    0.73205602   -9.85116549   -9.49263726     20.88537540  -10.27926380   17.71862070      4.38294556    4.30336893    4.37611902
    1   -0.22608262   -9.93755663   -9.53687511    -17.06119740    2.34219081   -2.22314119     16.56846793   17.35383412   17.15959750
    1    0.91471239  -10.39555606   -8.67942447     -1.14935488    7.85520175  -12.67427968     17.20944570   17.57513231   16.73432883
    8   -1.44713900    0.35251854   -1.86882771     24.79596692   -5.25986332   16.64035693      4.39337825    4.31686200    4.37269874
    1   -0.44960524    0.34867021   -1.87532396    -20.85934441    0.34370726   -0.80523866     16.40771880   17.26745263   17.21879591
    1   -1.62551162    0.66603224   -2.76140198     -0.55017603    5.22752572  -14.47381693     17.23426697   17.46420087   16.66798955
    8   -6.40968474    5.08164604   -5.06718754     22.17160487  -10.70424778  -12.91642793      4.38705584    4.29997795    4.29547899
    1   -5.50061561    5.41975654   -5.25306455    -11.47751020   -5.51227896    1.31231669     16.79665130   17.03778504   17.30771765
    1   -6.72107284    5.77682826   -4.48109702    -10.68802497   15.65682016   12.32689691     16.80747745   17.92367884   17.77867256
    8   -1.09398571    8.19870432    5.17052429      9.49413640   -2.91351844   -6.70542784      4.35322737    4.32209507    4.31046688
    1   -0.18517724    8.28190018    5.55787511     -7.35781763    3.56393711   -9.13852282     16.97597355   17.40335718   16.88390679
    1   -0.91826901    8.05513161    4.20269775      5.52016987    0.36303048   16.76716807     17.48086463   17.27157504   17.97114437
    8   -1.81437001    7.71347922   -4.16541783     14.74553770   -6.42901297   -5.10568003      4.36859161    4.31125539    4.31605586
    1   -1.23048217    8.32712429   -4.67768011     -6.88491575   -1.99073194    5.21006642     16.97452778   17.18296852   17.46606566
    1   -2.08943592    8.31087647   -3.44671424     -5.06720496    8.75319631    4.49690115     17.03922433   17.63540210   17.45553456
    8    1.60525591   -9.83418859    8.95248442     -6.53356572    7.68963519   13.42240804      4.31362558    4.35003224    4.36419734
    1    1.29246107   -9.78006822    9.88538943     -3.57888613    5.68153661   -1.65019728     17.10079195   17.48947828   17.19948526
    1    2.10534568   10.38380486    9.03871668      5.92312641  -12.36401401  -11.54516487     17.49632783   16.74295483   16.77411374
    8   -6.87137796    7.04705471    4.26378588     -7.13470236   -3.70538472    7.31434868      4.30975216    4.31903738    4.34768162
    1   -5.99805242    7.41283501    4.08640122     10.12041852    5.50310300  -10.11566112     17.69662437   17.49364216   16.83507078
    1   -6.96806299    7.33743861    5.19828067     -3.53027749    0.00737964    1.04521815     17.11091448   17.26392522   17.31961057
    8   -3.55892469   10.04437206   -6.55557981     -6.88330633   16.97795955   -5.76412027      4.31039882    4.37310421    4.31313206
    1   -4.23294543  -10.38893726   -6.99983331     15.22774112  -16.43864619   12.39888347     17.89510330   16.56621171   17.77638827
    1   -3.08093570  -10.36203858   -5.95940345     -6.35061958   -4.68690361   -4.25634988     17.00526060   17.08592965   17.09754555
    8   -6.64388033   -8.26889814   -9.20982812      4.78997892   -3.13889703    3.37095186      4.34181365    4.32094431    4.33661255
    1   -7.31986833   -8.06561052   -9.87748471     -5.96672655   -1.83478182   -8.93387251     17.02339851   17.17157269   16.89990378
    1   -6.84784419   -7.54657597   -8.58594628      0.08900100    3.56288802    4.59014349     17.25190553   17.42106161   17.46097610
    8    3.69190651    0.66967084    7.07243443     -0.00489626  -12.57957131    6.16079121      4.32908102    4.29563179    4.34410548
    1    3.46081774    1.20125490    6.27948756      2.68360775    9.06681749    4.70786056     17.36887027   17.62727731   17.46042073
    1    4.04633434    1.32988797    7.71677100     -3.35392854    2.45494777  -11.39139579     17.12632442   17.38325526   16.80077568
    8   -2.23319432   -7.42899848    9.05674120     12.45565744   15.27567750   -6.23700176      4.36180996    4.36822864    4.31380728
    1   -3.04320292   -7.87860551    9.33027181     -7.42301434   -9.81948421    5.15545433     16.96180706   16.86114702   17.46326221
    1   -1.71924456   -8.14938240    8.63375791     -2.07878568   -2.40812560    1.00619705     17.16439587   17.16726421   17.30005991
    8    2.42660312   -1.20723288   -7.10517176    -20.64948703    0.73491184  -22.85455599      4.27505119    4.33038499    4.26828976
    1    2.77415325   -0.62616216   -6.43083188      9.96122639   11.21826939   15.37518853     17.68382756   17.73782184   17.92111604
    1    2.91076916   -2.03095290   -6.96940045      7.37976821  -11.52531042    6.43894572     17.56018179   16.77993689   17.52414493
    8    4.64922045   -1.94783667    7.59010135     -0.54847547   23.85235597    0.90461469      4.32857115    4.39153425    4.33058834
    1    4.83909781   -1.98304552    8.55938233     -1.67336271   -2.66264540   -5.53329690     17.18751422   17.14788889   17.04835099
    1    4.35836372   -0.99147432    7.48558090      4.99773504  -21.57314750    1.55128163     17.45903025   16.36927689   17.32266181
    8    7.50630515    3.98152925   -8.89936480     -0.10553047   -2.19901732    3.45072943      4.32806107    4.32231699    4.33822265
    1    7.91162435    3.08154510   -8.88126268      5.46447921   12.74077371    1.31840852     17.47905784   17.79489311   17.30926992
    1    8.22651145    4.56568384   -8.54121075     -2.68289030  -13.51860038   -2.47573052     17.17057817   16.71005762   17.16400779
    8   -9.32548005    3.93570671   -2.01258748      0.58357961   -1.91573882   11.48099724      4.32966135    4.32448936    4.35881607
    1   -9.57690980    4.03162883   -2.94027267     -0.83152795   -1.24108045  -14.22684041     17.23023112   17.20190703   16.68364537
    1  -10.10950689    3.45033632   -1.69853352      0.56461879    0.64094298    3.55906414     17.29654596   17.29077969   17.40036244
    8   -8.04777476  -10.25272063    8.91437768     -3.80772506  -15.06249652  -22.83827578      4.32035454    4.28970408    4.26849649
    1   -8.29719605   -9.42523942    9.30911305     -2.08644373   23.52721861   13.16506814     17.16098872   18.24870406   17.81516114
    1   -7.70753302   10.28249874    9.67677099      4.89373966   -3.17137088    7.78962084     17.46017032   17.11877428   17.59128067
    8   -5.22772750   -0.69466427   -7.22768860     -5.45912291   10.72510853   15.44832503      4.31638156    4.35680464    4.36940094
    1   -5.01083755   -0.61043315   -8.15245953      4.02097236    1.33039931  -14.50198202     17.41600872   17.30768424   16.66461846
    1   -5.37896888    0.26093891   -6.98675821      1.65570317  -12.72219037   -1.66243451     17.31934499   16.74659036   17.18870415
    8   -4.73859177    7.53911202   -2.13804787    -13.01793127    3.44366731   -1.20077149      4.29399985    4.33809396    4.32699713
    1   -5.45967232    8.15205141   -2.43347520      9.03202809   -6.81373842    0.87145476     17.63758248   16.96631412   17.29243542
    1   -3.97543348    8.12984156   -2.20495830      5.68271967    5.02243997   -0.96170503     17.51107628   17.48221822   17.20994955
    8    8.33144818   -6.21139592   -1.53407023     14.70540098  -11.78582876  -12.14866059      4.36905715    4.29889226    4.29685207
    1    7.92041671   -5.58221461   -0.93260794    -17.90305996   15.86315992    6.11143552     16.50221134   17.92317356   17.52269293
    1    8.62149911   -6.84266333   -0.85935407      4.40467686  -12.94448471    5.17940440     17.43739800   16.71233776   17.47631626
    8    5.79183923    0.25010194   -7.06652765    -23.86377168    4.43446378   18.68817566      4.26587362    4.34089273    4.37710132
    1    4.91329050    0.36797874   -6.59278568     13.31579761   -1.93859083  -15.04489768     17.81622464   17.17382857   16.62836847
    1    6.33765549    0.57809329   -6.33492105     10.29468182   -4.34320507   -4.58063430     17.69850765   17.08663112   17.09370855
    8   -8.21728923   -3.00860404    8.66008653    -14.18649635   -3.43358234    8.38423862      4.29094685    4.32000322    4.35037684
    1   -8.84387147   -3.21311268    9.40149810      0.73411790   -3.33795384  -10.05495372     17.28919993   17.11756992   16.83753587
    1   -7.50627934   -2.60975078    9.19274784     10.85821307    4.05630017   -0.18110512     17.72878364   17.43690435   17.27052106
    8    1.36428415    1.08940187   -1.58184384    -15.52360337    7.96848197    7.20794038      4.28990775    4.34941201    4.34813481
    1    1.34894762    2.06973475   -1.64739970      4.92650635   -1.12911246   -4.04633117     17.45599552   17.22640224   17.08831892
    1    1.01066201    0.99274641   -0.66610276      6.41035141   -4.40509650   -0.27808287     17.51592885   17.07397174   17.25137859
    8    2.44232633   -4.24799019    0.29238210     24.02253828   -4.33886537   -3.08975780      4.39177046    4.31820553    4.31963855
    1    1.73543854   -4.32051944   -0.38735435     -7.33593821    1.32078584    1.27223276     16.97353224   17.30953226   17.32620307
    1    1.99662836   -3.85164687    1.06019548    -12.83318034    4.99580037    1.38541092     16.71438440   17.46760147   17.32564963
    8    4.99513261  -10.11018311    1.76857160     13.00162586   -9.62926941   -1.72005874      4.36311264    4.30337272    4.32593374
    1    4.05081935  -10.06102703    1.98742226    -12.14675111    5.09253701    0.76132326     16.76299238   17.46946046   17.28172328
    1    5.10261594    9.94524031    1.77194488      0.29469209    5.27334719   -2.75656298     17.26873295   17.49238636   17.13774183
    8    1.74611233    7.87201261    0.76165889     -8.70453329   11.79932345    9.27636499      4.30787092    4.36037971    4.35316729
    1    1.99316831    7.73902431   -0.16467130      3.24568001   -5.08644132  -10.25631539     17.38382272   17.04317751   16.84450326
    1    1.30036503    8.75673192    0.67425906      6.60675056   -6.60952825    2.63316546     17.52474501   16.98583968   17.36402850
    8    2.16978148   -5.59083477    7.63736093     11.00862707    5.01295787   16.68973285      4.35750175    4.34284155    4.37168751
    1    1.49574893   -5.69759954    6.96979312    -15.20316381   -4.79869350  -18.89779373     16.64730858   17.05622869   16.48884990
    1    1.58973053   -5.26843947    8.36725452      4.20473655   -0.80136446   -0.36683535     17.42441838   17.22423098   17.24860461
    8    8.97407162   -5.12277892    5.36926452     12.43865436    4.53461504   -5.26864136      4.36109364    4.34075310    4.31447393
    1    8.24829727   -5.31523374    5.97552140    -12.18329060   -6.16794739    4.91548235     16.75527510   17.00113772   17.45843069
    1    8.66826365   -5.49701780    4.52213669     -8.20894614   -0.59632286   -0.85096707     16.92857235   17.24399826   17.24484029
    8   -9.92357778    3.95868969   -9.92650979     -7.32782952   24.59027755   15.51364384      4.31033593    4.39235409    4.37011984
    1   10.49196034    4.08349906   -9.15360745     10.10070657   -4.26127310  -14.00366600     17.67230349   17.08070558   16.67602828
    1   -9.49529210    4.85874615   -9.88531089     -3.31327657  -13.52929462   -5.65274303     17.12622928   16.71870702   17.02405039
    8    6.34717257    6.39100078   -1.99485862      0.75839174   13.69787665  -13.88832017      4.33135030    4.36658405    4.29341109
    1    7.23619627    6.31672700   -2.42448785     -7.38495842   -4.77238420    5.14900290     16.95559012   17.05330639   17.46616397
    1    6.48051479    5.88370573   -1.19010086      4.83394197  -10.32992233   11.67525957     17.45814571   16.81764224   17.74616008
    8    8.50280333   -5.83236015   -7.27389336      9.31502935    5.18996659   -1.60596054      4.35233867    4.34255186    4.32491438
    1    8.77766792   -6.62172452   -6.76107628     -2.21146601   -1.70198805   -1.70754585     17.16584267   17.18476244   17.18468414
    1    7.68512265   -6.15809317   -7.67581973     -9.78608694   -7.61107985    1.88002911     16.87597547   16.95334958   17.34440753
    8   -2.35374951    3.07795917   -8.59621549     -0.31898427    6.27233508    0.52444333      4.32888897    4.34455962    4.33152319
    1   -2.36017450    2.13224820   -8.80306750      2.33115318   -8.28217215   -0.91748061     17.34833642   16.93484616   17.22221972
    1   -1.60734915    3.38156495   -9.15508975      0.58989640    0.89805342   -2.61866719     17.28607179   17.29574857   17.13910976
    8    7.84351523    0.27799379   -5.03170531      2.18091159   -6.36371238    1.30153945      4.33555133    4.31139788    4.33186233
    1    7.62178790   -0.68960806   -4.92903440     -2.76288769    9.11871149   -0.64313426     17.14437763   17.65569981   17.22509000
    1    7.82091534    0.55862208   -4.08960939     -1.27048046   -0.00915544    2.19075702     17.20008064   17.26045505   17.37043378
    8    7.78311560  -10.37904375    4.49814421    -16.90299718   -3.40152383   -5.43229302      4.28368707    4.32074304    4.31450501
    1    7.15258112   10.43110008    5.22708921      3.31627744   -0.27638328   -5.15889637     17.39666735   17.24359109   17.04025212
    1    8.57901026  -10.17644722    4.99123421     14.33304866    5.99967534   12.12153691     17.87584313   17.50797020   17.77885722
    8    2.43254689   -6.85867392   -5.08162160     27.60910650   33.01515939    8.60691302      4.40082623    4.41434575    4.35184976
    1    3.44262353   -6.73628969   -5.16256385    -31.83814503   -5.73177987    6.03947348     15.95176774   17.01964425   17.50383210
    1    2.34771164   -7.71734110   -5.47979965      1.22570870  -25.61747749  -14.51080532     17.30608420   16.21706743   16.66305567
    8    2.00112494    7.55901447   -1.99513077     21.86238442  -18.55600330   11.94244875      4.38544473    4.27969565    4.36039230
    1    1.64957864    8.39470195   -2.29434315    -16.07294250   13.76746940   -8.33329074     16.58769223   17.83163311   16.90742554
    1    1.39626144    6.88159508   -2.34024410     -9.05683656    5.96084984   -4.06452553     16.90342982   17.52256188   17.10042358
    8    7.40361906    5.03321303   -5.42387408    -10.95824053   12.27430216    3.82432058      4.29987785    4.36038614    4.33962677
    1    7.75187784    4.18467860   -5.72211310      5.45808514  -12.03410179   -5.44742294     17.47980842   16.77164701   17.03286501
    1    6.42268832    4.86213710   -5.44845638     10.21586064   -1.95391454    0.53739544     17.70202854   17.18338326   17.27908542
    8    5.98334527    9.06048754   -1.27031177      3.87645142   13.08755005    1.40922401      4.34065856    4.36303031    4.33249322
    1    6.13328779    8.15690890   -1.58024691     -1.34554981   -8.82778030   -6.20722440     17.19319725   16.90697807   17.00781116
    1    5.98892090    9.57301947   -2.11732100      1.89037621   -6.11159905    7.49903447     17.33115854   16.99979779   17.57435367
    8   -0.91329612   -1.04797541   -5.14420989      8.06124696    3.07083373    1.58552363      4.34945655    4.33599817    4.33387714
    1   -1.87227570   -1.24857619   -5.11261273     -3.05966905    5.96417642    2.44809554     17.15128855   17.50685630   17.35442487
    1   -0.88465882   -0.08417154   -4.87389081     -8.19520261  -14.60797518   -3.81154692     16.91431046   16.67289946   17.10270646
    8   -8.04076713    3.99914524    7.46345711     20.97768140  -28.07691665   14.65908712      4.38282746    4.25541687    4.36788195
    1   -8.90256779    3.93954689    7.06728896    -25.58801671    4.19322457  -11.71150447     16.21753577   17.43438552   16.77767881
    1   -7.98581671    3.05821185    7.79401363      4.15715668   17.20172018   -2.29891743     17.43143329   17.98091145   17.15681296
    8    9.40825817   -8.22144406   -6.16459627      3.72035883    6.13810145   19.38001044      4.33899165    4.34409084    4.37907712
    1    9.61692283   -7.89066457   -5.24239576     -4.37580411   -9.28288821  -19.78739379     17.07793998   16.87674055   16.46084914
    1    9.16563197   -9.15599297   -6.00833363     -1.70920870    5.22015021    3.71077105     17.18800622   17.49287763   17.40498999
    8   -0.79841216   -1.07053693    5.41458729     27.81826704   -1.51372364   21.22720723      4.40151489    4.32514313    4.38375421
    1   -1.24951382   -0.43563449    6.02777235      1.56145235   -2.26010695   -6.92789574     17.31650078   17.17041695   16.97895228
    1    0.11857342   -1.07661401    5.85994318    -25.44750495   -0.08195889  -18.02981412     16.21873463   17.25500583   16.52098136
    8   -5.82659077   -7.33365239   -5.71067348    -13.70969975    1.95891947    1.34607663      4.29346161    4.33594389    4.33308172
    1   -6.48520544   -6.84193684   -6.24094229     -2.06007897    1.01173893   -1.94325745     17.17719228   17.28746473   17.18199985
    1   -5.10286298   -7.33861342   -6.36360446     11.74319140   -4.59657231   -4.01878822     17.74381572   17.06151386   17.08618172
    8    9.72365284    7.51513022    3.74232633     -7.07143165    0.07293780    5.94400495      4.30963146    4.32942568    4.34438012
    1    9.88521623    7.32026218    4.69516336      3.15525534    3.05398270   -6.52350939     17.39330757   17.38003635   17.00134122
    1   10.49791841    8.08082716    3.53519933      3.94432954   -3.10010892    2.12248115     17.43915754   17.13918411   17.34311926
    8   -6.12615991   -2.12478816   10.08423047     14.92163097   13.65140136    7.67910225      4.36793806    4.36384467    4.34891127