 BEGIN_INFO
   #
   # This is a XCRYSDEN-Structure-File
   #
   # aimed for Visualization of geometry
   #
   # Launch as: xcrysden --xsf HICOLM.XSF
   #
   #
 END_INFO
 # estrutura final
CRYSTAL
PRIMVEC
      20.95935321       0.00000000       0.00000000
       0.00000000      20.95935321       0.00000000
       0.00000000       0.00000000      20.95935321
PRIMCOORD
  927    1
    8   -6.81118925   -8.27134191   -9.18568695      6.60247764  -10.21192874    4.72995258      4.34633091    4.30222006    4.33944145
    1   -6.24140021   -8.26206076   -8.38394864     -0.57136938   -2.77699870   -6.39807872     17.24573034   17.14715743   17.02194235
    1   -7.39710540   -7.52271177   -9.01039727     -5.60401393   12.56884197   -0.18845798     17.01976767   17.78399104   17.25659647
    8   -1.84124282   -5.07238742    9.75557996      4.27599936    2.71008175   -0.24031043      4.34044906    4.33614296    4.32624840
    1   -1.19227194   -5.40846766   10.40945050      0.31471899   -2.90514631   -7.57808720     17.28352559   17.12461106   16.95808617
    1   -1.75575728   -5.69171367    9.00235816      5.25376902    0.67756195    6.05058664     17.46662447   17.30560938   17.53230581
    8   -1.35317498   -0.38580590   -3.67063300     33.04666545   -7.40067706  -18.04491000      4.41565469    4.31132732    4.28281413
    1   -1.09082604    0.12688955   -4.47665921    -10.87107309   -0.58945931   14.96026393     16.80454377   17.22613068   17.87654807
    1   -2.25126498   -0.12795661   -3.50297627    -25.81824013   11.36174192    1.90734193     16.19136375   17.71791757   17.33222142
    8    8.26622901   -4.20389866    0.02937108    -19.45672517  -12.85879129   34.22429481      4.27862592    4.29674663    4.41962003
    1    7.53896443   -4.27566998    0.72250478     27.00705615    4.79118946  -26.17798524     18.37997538   17.45262133   16.16261565
    1    8.91310292   -4.88121736    0.33683225     -7.35227128    9.64715395   -4.04705981     16.95096607   17.64907297   17.08729781
    8    0.08821667    1.15575084   -0.40330814     -6.77695129   23.64262806   -3.33245381      4.31052785    4.39092726    4.32201028
    1    0.44344943    1.97987293   -0.80709513     -1.24124213   -9.70735685    4.15933158     17.20953725   16.86821573   17.41784902
    1   -0.86491076    1.39087652   -0.34953923      3.79453757   -9.32657466    1.66047545     17.42999085   16.86234051   17.32124122
    8   -6.77324383    8.30265911   -4.74123024     41.74626811   18.08889857   21.92261569      4.43715884    4.37503323    4.38581896
    1   -5.95429453    8.75271949   -4.38024519    -31.22064138   -1.69712237   -8.53488561     15.99406124   17.19838188   16.91311475
    1   -6.34872443    7.52405536   -5.12211422     -9.95475409  -12.71472245  -12.55138201     16.83479977   16.74410893   16.74167165
    8   -8.24785581   -1.11425231   -4.56172334     19.72294602   16.61384211   30.78456172      4.38026921    4.37264648    4.40765679
    1   -9.02419030   -0.93040984   -5.11326976    -10.24393957    2.00184503   -1.88656327     16.85244688   17.33016695   17.19300676
    1   -8.38077486   -0.51413944   -3.76215783     -3.32119555  -19.11414455  -29.81204184     17.11151521   16.47895022   16.04066634
    8   -7.13061494   -3.25678752    3.80254547     24.80603945   -4.73920371  -23.68758558      4.39495579    4.31500334    4.26770773
    1   -7.05852655   -2.28483046    3.88141113      0.26614706   -0.35024309    1.67931976     17.27052982   17.27002284   17.32104078
    1   -6.47724784   -3.46876476    3.07255974    -21.84344749    7.45909419   23.53289573     16.34129931   17.57127200   18.23784179
    8    6.89296383    3.39520910   -2.02577724    -10.93441004    1.19322525  -11.89552399      4.29957168    4.33118392    4.29638703
    1    6.77018198    4.30813591   -1.70672909      4.42313266   -3.06175869    5.15722506     17.44401781   17.15328715   17.48654453
    1    7.65851147    3.05447010   -1.51336301     -0.00486389    2.83709222    1.23531730     17.27470087   17.37535715   17.32547357
    8    7.19030519   -9.82634703    2.64642085      6.60238947   -9.70737764    3.86412002      4.34724884    4.30363401    4.33734913
    1    6.93661688   -9.10801413    3.23070171     -0.92826318   10.27425080   12.87379735     17.20531556   17.70336152   17.80610520
    1    6.77352041   -9.55745093    1.82106097     -4.64640238    0.16355347  -17.77867577     17.07134691   17.25245437   16.53805789
    8  -10.19753982   -7.04232765   -6.81498120     24.31594364   10.08678710   11.07995023      4.39132896    4.35524248    4.35664248
    1   -9.37735551   -6.98577221   -7.33794643      0.42431718    4.55842811    7.06263212     17.28350206   17.44562363   17.54759988
    1   10.16455897   -7.36989219   -7.48076506    -21.45447344  -11.60651130  -15.85906331     16.38432179   16.78565991   16.63057854
    8   -4.43215814    3.13052352    4.39002810      1.42844443   -3.35752229   -8.50452534      4.33286495    4.31961900    4.30854624
    1   -3.55986039    2.85927074    4.04437533      1.31025277    5.27286922   -0.77314935     17.31574840   17.47401712   17.21748112
    1   -4.78477733    2.28141142    4.70805119     -3.67534214    2.19077418    5.08808148     17.10653047   17.36806583   17.45787099
    8    0.23022555   -2.33671314   -7.19241352    -24.73206016   16.30007973   26.02804736      4.26607838    4.37163263    4.39782037
    1    0.58362596   -3.22697707   -7.22963794      0.33276878  -15.98637116    2.84090792     17.26081390   16.60345051   17.36976559
    1   -0.29531281   -2.33294468   -6.34167592     19.08809660   -7.96305805  -22.28148033     18.04206312   16.92418526   16.33418961
    8    7.63890285    1.07521077   -8.63423064      1.13180704   -7.75820334   -3.02263884      4.33076971    4.30743802    4.32009386
    1    7.10783709    0.44140336   -9.17441135      1.35106125    9.00575183    7.18411220     17.34202496   17.65125152   17.57856512
    1    7.05962234    1.86892855   -8.58733702     -0.67411056   -3.77794000   -5.73572762     17.22752244   17.10718058   17.02067441
    8    7.51154052   -6.31369541   -5.57050506     13.40074412   -6.21096889   60.94441225      4.36242223    4.31300270    4.48775534
    1    8.23701092   -6.10152709   -4.91687120    -29.31465206  -10.23666004  -12.19781996     16.07197154   16.84099777   16.76727721
    1    7.89374595   -6.03651982   -6.36783931     13.50639177   13.39638629  -44.88378291     17.81955409   17.80994899   15.39426118
    8   -8.11380755  -10.47367293  -10.17041165     -5.78195889   -4.43865351   24.60203788      4.31379284    4.31566221    4.39214979
    1   -7.74191875   -9.62226199   -9.84066116      3.12167279   -6.10180387  -12.24217646     17.39920332   17.03823019   16.75371854
    1   -8.06067157  -10.43119866    9.83127754      4.85264453    9.56256862  -14.75931919     17.45448094   17.65344419   16.66384943
    8   -9.15921159   -9.35121685    1.64701464     39.41364124   39.48462629  -17.05742924      4.43282045    4.43067871    4.28485149
    1   -9.76592822   -9.97460717    1.98012890    -35.97127307  -34.30200423   16.65201118     15.77358084   15.84491096   17.93585269
    1   -9.37015085   -8.56911952    2.18057130     -1.65955830    1.32932960   -0.89527707     17.17582837   17.33330165   17.23430740
    8   -5.29194518    9.78563481    1.32325938     -9.32956889   18.12048989    6.74326535      4.30592919    4.37504837    4.34664866
    1   -4.94079082    9.49619811    0.45280694     -0.40176330  -11.55357831    2.38811037     17.23107779   16.78971774   17.36966117
    1   -5.59722809    8.97256438    1.76352981      7.98836668   -6.03849086   -9.81765005     17.58776707   17.02417430   16.84468710
    8    8.91144547    2.21939162   -0.84235070     26.02851375    3.10197078    3.49519002      4.39589126    4.33548567    4.33769687
    1    9.81241146    2.54968821   -0.55554135    -24.90066388  -10.32174898   -6.65652938     16.25646506   16.83463415   16.98710299
    1    9.09071711    1.33124412   -1.21203269      5.83172584    5.18074167    6.65935599     17.49245210   17.49729975   17.54223102
    8    5.27847136    9.31226886    7.46763145     36.57206971  -34.11449260  -10.55105422      4.42422329    4.23917161    4.29967670
    1    5.19635139    8.68556647    6.72774410    -20.63384529    8.57383588   -3.79541289     16.39755118   17.63828820   17.12722685
    1    6.16420256    8.96693041    7.76299859    -16.65658557   23.68954783   16.35934824     16.58251571   18.23330192   17.94296935
    8   -3.64755830    0.01684207    3.49430418     -0.15629910  -19.26419776  -11.58265220      4.32905666    4.27661842    4.29875068
    1   -4.11704676    0.26599947    4.28850297    -12.51037763    0.98403753   14.50524284     16.72963432   17.30880242   17.87010490
    1   -3.13391470    0.81257879    3.30874604     11.88083644   11.87462837   -4.63830369     17.75903870   17.77812781   17.06349444
    8   -9.95819080   -7.11905696    3.58952082     -5.61309854   -6.84197319   49.58351465      4.31319599    4.31217510    4.45776711
    1   10.26629496   -7.12311388    4.26166467     10.42544106    2.73339452  -28.44102899     17.69483865   17.36722600   16.07504200
    1   -9.19159955   -7.16529757    4.21269340     -3.25662228    1.73851267  -20.76687582     17.14153950   17.32426574   16.41892587
    8   -4.18009164    8.91695920   -8.41860183     26.51885339   -3.19750024   21.32997381      4.39649890    4.32126186    4.38499305
    1   -3.76589953    9.51419594   -9.07377262    -13.81730218   -1.89290922   -8.22791466     16.68971909   17.18012860   16.90806173
    1   -5.07914368    8.75253857   -8.72539092    -11.35687935    3.40595198  -15.65996411     16.81563850   17.39541975   16.62041628
    8    3.74162763   -8.85940284   -7.03757940     38.14140345   -3.59960724   13.87283498      4.42822473    4.32045962    4.36385661
    1    4.02170056   -9.10193458   -7.93565332     -2.11532202    1.24316016   -3.16126986     17.15996780   17.31061517   17.14534153
    1    4.61310946   -8.91750553   -6.53682746    -32.22274005    4.09868201  -11.50382267     15.94530798   17.42139185   16.79006567
    8   -9.15540727    4.22471663    6.56302273     20.16297339   13.70447109  -17.71565647      4.38003999    4.36561794    4.28224940
    1   -9.55390212    4.42962105    5.70429353      5.55381257    3.61284717   -8.40836864     17.50595090   17.40223808   16.92605324
    1   -9.87835947    3.79198878    6.97674488    -26.92103479  -19.20550048   25.06648844     16.15552294   16.46179826   18.29514117
    8    5.92631026   -9.05022715    0.29733778      4.72118205   30.47394998   -0.54295645      4.34118355    4.40713845    4.32623672
    1    5.62214770   -9.71605063   -0.35505280      3.83668231    7.97106146   -4.34949786     17.42558174   17.60975927   17.10858055
    1    6.12898328   -8.21737649   -0.23950639     -2.32598119  -35.34728622    9.42245129     17.16176352   15.79843775   17.64609911
    8    8.65666492   -4.72663942   -7.60020978     -5.90377191    4.59186884   -3.38220965      4.31207281    4.34052994    4.31900419
    1    9.28259597   -4.36165229   -8.24025279      3.86951990   -4.41951613   -5.31248428     17.42707081   17.07741909   17.03502999
    1    9.06765403   -4.48655292   -6.75659960      4.47935379   -0.50439406    3.40281118     17.46666927   17.24876095   17.42577679
    8   -0.00933923    3.48838024    7.63741918     18.53556182   18.86575658   -7.14643564      4.37728809    4.37648810    4.30957048
    1    0.31334444    4.28577974    8.14678237    -10.13130973  -16.02460202   -4.22206942     16.84215773   16.61961308   17.10693419
    1   -0.60843062    3.04126533    8.25292671     -6.36397965   -3.57905643   11.25787048     16.99713904   17.11564187   17.71933253
    8   -8.72533797   -4.93942155   -0.39623939    -19.67278680   24.66875395  -26.79105643      4.27693249    4.39528897    4.25988821
    1   -7.91918857   -5.33807111   -0.09927858     29.14564792  -18.92165230   10.86815149     18.48138686   16.45537539   17.71285094
    1   -9.37360322   -5.28582504    0.21759225    -13.45281449   -6.15664450   12.44561581     16.70272231   16.99956429   17.76373217
    8    8.07134868   -2.51888180   -2.27956948     23.45478673    6.75474975   -7.35598011      4.38920603    4.34789372    4.31079385
    1    7.12152346   -2.48328469   -2.37736306    -22.80764864   -2.31882001    1.17841107     16.33375997   17.15903145   17.29939572
    1    8.20096890   -3.16474583   -1.57006064     -2.71509575   -6.04137644    6.89637458     17.14637399   16.99824075   17.54278196
    8    6.02157747    7.43528220    5.54153343     34.40192546    3.25918908   -2.49871392      4.41785436    4.33890435    4.32239567
    1    6.99721401    7.47130373    5.63919293     -9.17070204   -5.25472820   17.93659012     16.90303364   17.03678139   17.99925903
    1    5.99643345    7.76786352    4.64850024    -22.59200360    6.62676746  -22.45936573     16.31752432   17.52251777   16.33580256
    8    1.10038254   -9.06241545    1.85147279     -1.58883030   20.04428459    1.94592221      4.32471095    4.37958624    4.33430678
    1    1.89697337   -8.58102467    1.55516381     -1.38338035  -10.02470922    0.53197467     17.21472660   16.85964791   17.27398366
    1    0.71543705   -8.41844890    2.48878557      0.63966492  -11.40538296   -1.47410994     17.27962184   16.80281177   17.20517717
    8    6.23886014   -5.46439822   -8.48296434      6.26811332   14.43279046   21.30511978      4.34415318    4.36621457    4.38343490
    1    7.08829694   -5.11026385   -8.12417682     -8.24771021   -5.82244996   -4.23823289     16.94906921   17.02623104   17.08894623
    1    6.49033731   -5.77485041   -9.34330613      5.57426880   -9.89095303  -23.06657260     17.48080711   16.85118731   16.31850379
    8    4.95908590   -5.88323676    3.17088045     11.30036956   26.12476422   -2.10345825      4.35907695    4.39592726    4.32431815
    1    5.61542707   -5.20833154    2.79303934    -22.44422275  -24.68872572   12.86018153     16.33164609   16.25014192   17.78508483
    1    4.38515190   -5.32422351    3.76086472      9.97610249  -11.16577757  -13.81905277     17.66500150   16.80574766   16.68586869
    8    8.64978811   -2.40853040   -4.94384565     -4.96974032    6.64791647   -4.70036226      4.31777908    4.34708941    4.31595273
    1    8.47323271   -2.41340837   -3.96520507     13.52874337  -14.32156592  -13.94533149     17.81304783   16.65543521   16.69500484
    1    9.22094120   -3.18904133   -5.14200530     -7.43185012    4.78034620   22.41988564     16.93721884   17.45980942   18.18990216
    8    0.09761324   -6.27816803   -9.59516812     26.56055893    3.53175261   -7.88542968      4.39726670    4.33749054    4.30700620
    1    0.99920805   -5.97253645   -9.91130424    -26.07154163   -4.73375712    0.23561720     16.19220703   17.06811021   17.26877216
    1    0.14562892   -5.97554381   -8.67799361    -10.01368857    1.43317960    9.55751203     16.85060629   17.32860397   17.68198865
    8    4.23182536   -2.95418234    0.65049495      0.01542050    6.90240822   -1.16440632      4.32900244    4.34609597    4.32435701
    1    4.04898631   -2.07990450    0.19204500      9.54874964  -19.79508365   31.30166852     17.65342359   16.44060493   18.56169125
    1    4.57972925   -2.72494529    1.55617678    -11.82625403   11.22883816  -27.83532800     16.77472747   17.74081474   16.12989518
    8    0.51043748   -1.04971530   -1.87485538     23.56970560  -10.24830172   -1.14828167      4.38979695    4.30111491    4.32451365
    1   -0.24159974   -0.86165601   -2.45766675     -7.55716054    4.66305315   -5.55670504     16.96415445   17.44236349   17.04195108
    1    0.64357291   -0.20022807   -1.41698017     -8.29793891    1.25360350    1.79867114     16.91305011   17.34250384   17.34589719
    8  -10.29564870    8.22451493   -6.99463454      3.97753716  -29.01390617   41.30913701      4.33884249    4.25175095    4.43596568
    1  -10.28743403    8.82623040   -7.71426203     -4.25145739   28.57973210  -30.63847618     17.08082911   18.44591127   15.98725435
    1   -9.86057170    8.74049340   -6.28355660     -4.96723927   -5.60287913   -4.65076174     17.06876863   17.05344370   17.08620933
    8    5.08917095    0.14771186   -4.81115434     -3.65448964  -11.12381716    3.98680778      4.31947207    4.29828239    4.34053336
    1    4.31955212   -0.35964793   -4.46471400      9.10245163    4.92845670   -6.57340953     17.64847905   17.48049205   16.97473462
    1    5.63452302   -0.56389921   -5.23223138    -10.44295807    8.61490343    4.23702910     16.81774146   17.62948287   17.43397127
    8    9.63551561    6.01932233   -0.10048705     -9.02747754    0.68092610  -14.68512175      4.30471360    4.32960242    4.28907047
    1   10.05627896    6.63475657    0.51902379      2.19572567    7.26895726    8.33776405     17.36919365   17.57747417   17.63446913
    1    9.94038929    5.16073329    0.21099619      5.49611735  -10.70277192    4.24951500     17.48394044   16.81873067   17.43439768
    8   -9.22276326    5.01413219   -6.01880589      8.13156186   -6.37917230  -15.12460643      4.35009671    4.31366036    4.28795245
    1   -8.80876835    4.97283624   -5.15041939      7.61913258   -3.38861275   12.17813966     17.58014947   17.11293273   17.79482737
    1  -10.08399570    5.35068296   -5.81125169    -17.91634124    8.22728182    4.16244625     16.51752922   17.59109009   17.42934196
    8   -6.30591497  -10.09807211   -2.10889931     -7.78344735    7.94498263    4.79368734      4.30753058    4.34910433    4.34018137
    1   -5.81778227   10.30624350   -2.71304158      4.93330768  -12.03303574  -16.02339836     17.45228874   16.76606064   16.60222326
    1   -5.56949172   -9.76242506   -1.57391007     -0.47462489    9.05542258    9.46907636     17.27239486   17.64205093   17.66907856
    8   -2.34775528   -9.80148087    5.14410666    -20.40724634  -18.34648765   41.13166422      4.27378319    4.28137194    4.43587074
    1   -2.71130454   -9.75327866    4.26845473     -9.00293067    2.23617027  -31.77299500     16.90164353   17.34880760   15.95902015
    1   -3.11452396  -10.20265425    5.63696104     20.83602344   10.06877517   -4.88137072     18.14047725   17.68012179   17.05185679
    8   -1.14779506   -2.87594269   -4.70693717      0.12270165  -13.09244155  -25.03492108      4.33032007    4.29417053    4.26189891
    1   -1.29377857   -2.03349035   -4.22021897     11.10943223  -15.53980234   15.05585211     17.71351461   16.62988301   17.90588982
    1   -0.75480184   -3.54726270   -4.08309294     -7.73284289   30.09310351    4.62326964     16.93490414   18.50567897   17.45988496
    8    2.47943211    6.43143627   -0.43184995     -0.79845943    3.91088315   14.83834790      4.32745447    4.33768958    4.36678560
    1    2.51971420    6.55819577   -1.37278466      0.81427831   -0.23944606  -18.75919493     17.28601817   17.24337886   16.49633383
    1    2.69063259    7.32996212   -0.09664561     -2.60976480   -2.25839104   -0.08307692     17.15415841   17.19776577   17.25955798
    8    2.29634582   -7.36029420    5.29473179    -10.33786681  -14.47438674   -3.25938727      4.29987319    4.29044093    4.32028718
    1    1.48164005   -7.34212618    4.70897318     23.47148939    7.20291198   12.99014121     18.25915104   17.55088781   17.81595737
    1    2.73591169   -6.50980743    5.15893784     -8.69275443    2.82462409   -5.79950785     16.90768304   17.39932650   17.00728429
    8   -5.33756783    0.84207650    5.53943074      9.73220312   -6.17438718    0.70742327      4.35606230    4.31389210    4.33073650
    1   -5.97580981    1.42363333    5.99985063     -5.47527936   -0.49265220    4.93016576     17.01867700   17.23670857   17.46740199
    1   -5.09178275    0.19315235    6.23897550     -4.48516003    2.57938260   -3.00724997     17.06626290   17.35727000   17.13714684
    8   -7.96234214    7.10803855    0.53848291      5.58412787   -6.73553742   -6.88930138      4.34235759    4.31154953    4.30932646
    1   -8.74078820    7.31971156    1.09574143      1.35640981    3.47413092   -2.10068592     17.31610350   17.40038443   17.17436459
    1   -7.20366418    7.31058779    1.09703010     -0.62420655    3.13571415    8.67857461     17.25506772   17.39542385   17.64774037
    8   -1.06351744    4.03911516   -4.94201300    -11.81642143  -12.89153734   21.41549025      4.29636739    4.29487422    4.38400454
    1   -1.58829480    3.68802670   -4.16107396      8.16084893    3.43890841  -23.42361215     17.60184463   17.40169135   16.28414172
    1   -0.30116279    4.44281716   -4.47619851      2.63493702    4.23845697   -7.19120589     17.39384755   17.44547057   16.98465889
    8    8.66590023    8.29441272    5.81052415     12.34989116   32.07412840   -2.89451193      4.36223315    4.41138540    4.32078813
    1    8.95011887    9.25648785    5.68973965    -11.06016160  -32.39027109    2.90923650     16.79968032   15.93667288   17.38231781
    1    8.36955219    8.28128641    6.74020210      0.80773833   -0.42557917    2.61186565     17.28373596   17.24635084   17.37930130
    8    9.57415094    2.91456668    7.52775766    -18.67415798    9.59560160    8.99253888      4.27937811    4.35490113    4.35089427
    1    9.09493083    2.83535896    6.68006139     -3.65690704    0.86055523    0.21681688     17.12730937   17.28999964   17.29268860
    1    8.85732380    3.20321462    8.16320465     19.95823821   -5.83157649  -13.05076090     18.08525242   17.01285986   16.71995431
    8   -8.66981851   -2.91876880    8.16388800      7.95103278   39.66574003   29.36438505      4.34948022    4.43099106    4.40568755
    1   -9.49363462   -3.14005575    8.62959937     -6.15696409   -7.32958683   -3.65721516     17.01241993   16.96338767   17.10121196
    1   -8.56526337   -3.59578519    7.51520449     -0.79051414  -28.00743915  -24.46488434     17.22779012   16.12038235   16.25562006
    8    8.36475123   -5.40638390    7.73110931     -0.90963244    5.34486503  -28.65903080      4.32776889    4.34347771    4.25262100
    1    8.57886671   -5.82298082    6.86770010     10.46104810  -15.67334172   17.87186851     17.68578703   16.61030116   18.02503435
    1    7.82966960   -4.67945275    7.37257228     -9.08066661   11.44685249   19.22948627     16.87722084   17.72894269   18.06035990
    8    9.10825817    1.52446088   -6.38457606     10.96538669   12.14472051   30.48807024      4.35686359    4.36123212    4.40707299
    1    8.54627113    1.35488149   -7.12753762    -17.23781789   -9.28592381  -30.49038003     16.56770031   16.87162038   16.01471193
    1    8.47110897    1.89084510   -5.73967089      7.37137069    2.76142855    1.60444381     17.55816693   17.37242259   17.33198699
    8   -5.09486471    0.44096265   -7.93849602    -24.15672573   31.20016012    0.63387947      4.26673448    4.41172124    4.32956986
    1   -5.74436235    1.08637518   -7.52822463     16.60540072  -20.64094948   -1.29485787     17.93874603   16.40251723   17.20727800
    1   -5.25495615    0.64445073   -8.88397359      2.37007470   -9.71126217    1.37508925     17.35772255   16.84280143   17.33407658
    8   -2.30942252  -10.32405936   -2.67178342     -4.50051883   20.87385685    4.35761480      4.31847510    4.38287359    4.34142025
    1   -2.96492799  -10.08324262   -1.96023602     17.75417733    4.07729728  -21.82323713     17.98729171   17.43066648   16.34975926
    1   -2.04302661   -9.44881315   -3.07958622    -11.67751053  -21.31535464   19.31334986     16.76883726   16.38675348   18.05271742
    8   -7.73425287   -7.26252795    5.38334483    -32.90257522   25.76727995  -38.62037476      4.24327458    4.39856234    4.22788704
    1   -7.00877455   -7.38190599    4.74323888     10.28720573   -6.85845172   10.94522964     17.68200331   16.96522973   17.71120448
    1   -7.45693721   -7.69045757    6.17336266     25.63534538  -18.07576139   21.79465167     18.32732533   16.48904608   18.17298921
    8   -5.23386227    1.30111265   -0.05014066    -16.37430801   -1.18917647  -13.24044031      4.28449948    4.32500579    4.29479858
    1   -4.92951294    0.39803841    0.13907268      4.98679296   -3.65536453    8.50118061     17.46706977   17.11577697   17.60662360
    1   -6.17800823    1.12838546   -0.28582139     12.35676273    1.86181513    2.42269506     17.80111622   17.34758962   17.36217006
    8    5.01886951   10.22687589   -1.59710262      3.22697445   32.93735244  -13.38707617      4.33888708    4.41442032    4.29474871
    1    5.25651166    9.33857667   -1.83359122      2.35251835  -30.97786025   -3.38986085     17.34194569   15.98702898   17.12086297
    1    5.52149362  -10.22429202   -2.28687530     -5.98947147   -4.28398961   17.17620283     17.00693598   17.08219727   17.96341626
    8   -5.60581167    7.28890740    2.42337258     -7.78105342   -2.71337765    3.47228688      4.30900985    4.32025483    4.33698436
    1   -5.90283617    6.35909219    2.49828141      2.42493322   -0.37294534    0.95568984     17.36402332   17.26883718   17.29083894
    1   -5.57148445    7.56700545    3.36354173     -0.80299882    0.85265789   -0.67939377     17.22123455   17.29827840   17.25892360
    8   -6.33158559   -3.21578362   -9.20927246     55.35454598   34.05532665   28.70028548      4.47244281    4.41807236    4.40296520
    1   -6.74777876   -3.32383684   -8.32797024     -8.90914333   -7.68282729   -8.08231842     16.88849281   16.93719394   16.93101975
    1   -5.42742780   -2.84211119   -8.92002168    -37.45213502  -19.74021775  -19.47231809     15.72841252   16.44724130   16.46582241
    8    9.50640379    0.20504998    2.11234484      1.91567021   11.99889124   15.24432360      4.33286734    4.35892122    4.36871703
    1   10.44740816    0.40841734    2.18847929     12.60328225   14.03008256    5.03136175     17.81219848   17.84395857   17.46551671
    1    9.59211495   -0.63443393    1.67803032    -12.88833937  -27.29881137  -16.01514623     16.71471910   16.14906492   16.60304549
    8    8.71204577   -6.59332352    5.22228491     20.30691809   -8.62236856   11.78381672      4.38015597    4.30593832    4.35997339
    1    8.74048423   -5.74855798    4.75646170     -8.43078846    8.00615718   -5.21050291     16.91028598   17.59723079   17.03357934
    1    7.89246002   -7.01905052    4.92826175    -10.29971447    2.23949282   -7.21035741     16.86334457   17.35773283   16.97147384
    8   -6.62693913   -8.68448004    1.13938238    -22.41465124    3.86332934   10.84385361      4.26964094    4.33803470    4.35882293
    1   -6.14095599   -9.50799404    1.03390164      6.96245893  -12.43100990    0.10745316     17.54429416   16.75211632   17.25644180
    1   -7.55368364   -8.99440529    1.33341962     17.64911044    3.80266888   -5.31286174     18.01053662   17.43044054   17.02805133
    8   -8.09406768   -4.61703698    6.10203348    -12.29467708   18.55621990   26.81926488      4.29820169    4.37630054    4.39939732
    1   -7.96362694   -5.46668436    5.70487200      4.88911180  -26.77071850  -12.45058354     17.44836049   16.16636950   16.75361951
    1   -7.74115647   -4.01784960    5.44004374      6.49865204    5.74071683  -13.04998186     17.52493430   17.50210932   16.70695559
    8    6.41764895    6.21900415    1.72853982     23.13277695   11.65707919    3.23135456      4.38886954    4.35759985    4.33795868
    1    5.50716626    5.94945057    1.92282109    -11.08462937    0.38922680   -1.07163597     16.81735854   17.27887600   17.20349111
    1    6.47446536    7.13936646    2.09115194     -8.89427798  -12.17719651   -1.84107136     16.88420459   16.78138066   17.19073538
    8   -0.77340865   -9.94760273   -6.36391863     34.85626081  -15.76666101    8.21118541      4.41875801    4.28782355    4.35173694
    1   -1.70444397   -9.85631426   -6.52601262    -28.17833861   -8.36328940    0.23509243     16.11137958   16.91027020   17.26296840
    1   -0.70253055   10.12841073   -5.91448960     -5.65654145   15.69041991   -8.56538811     17.02732521   17.91574946   16.89370629
    8   -4.40095729   -0.98418905    1.06592823      3.92115793   10.08857631   21.73222968      4.33890292    4.35383634    4.38476488
    1   -4.17243163   -0.58614856    1.94729455     -1.53906358   -6.62011009  -16.74871087     17.19741647   16.99207915   16.59461076
    1   -4.80185608   -1.82313076    1.31971034     -2.79222354   -5.79655063   -3.30484988     17.14921554   17.03764607   17.11089176
    8    6.44152765    5.73146460   -8.45927822      1.93301028   25.56409425   20.24936755      4.33290034    4.39498544    4.38071758
    1    5.98719032    6.45674447   -7.95270317      9.27967545  -15.66094647  -11.10502330     17.64137880   16.61976195   16.80740464
    1    7.36539744    5.82207360   -8.12161338     -9.03151820   -2.86838341   -6.23202851     16.90827812   17.14757828   17.01431806
    8    1.53873482    0.00566592    1.50818291      2.77302347    4.34566016  -16.02061472      4.33551113    4.34217797    4.28707306
    1    0.99939219    0.39790019    0.77015520      5.26223014   -5.84601838   11.62020602     17.48399797   17.00134484   17.75598203
    1    2.43864510    0.00253621    1.12230211     -4.19299736   -4.87257899    1.31912943     17.09336253   17.04987723   17.30410322
    8   -4.01884204   -6.12193546  -10.14432209      3.06169157    5.15251739   39.53186705      4.33548153    4.34193912    4.43146601
    1   -3.78480668   -6.04691576   -9.18844688    -11.40521057   -9.47740880  -11.10157220     16.79747862   16.86991998   16.82186859
    1   -3.30372730   -5.58898741   10.44187718      5.81778920    4.18514395  -18.18491710     17.51747422   17.44326757   16.50025497
    8    1.09636791    5.09255272   -3.84977253     54.18204540   36.48327524   -8.58805249      4.47069689    4.42273498    4.30672398