 BEGIN_INFO
   #
   # This is a XCRYSDEN-Structure-File
   #
   # aimed for Visualization of geometry
   #
   # Launch as: xcrysden --xsf HICOLM.XSF
   #
   #
 END_INFO
 # estrutura final
CRYSTAL
PRIMVEC
      21.23625279       0.00000000       0.00000000
       0.00000000      21.23625279       0.00000000
       0.00000000       0.00000000      21.23625279
PRIMCOORD
  927    1
    8    8.67985110    1.63544885   10.07944819     33.46532469   59.48551027   34.80102528      8.02428134    6.10447875    5.07979694
    1    9.50490315    2.24183381   10.18465655    -42.03571805  -48.74173926  -19.29097049     -0.77308826   -1.19598828    9.25920310
    1    8.95964095    0.95499341    9.48137318     20.75940897   -8.90902434  -11.30473631     17.64330534    2.61249793   18.77204769
    8   -6.79757910   -0.44987339   -7.14889069  -5878.67679041  -81.37357956-4800.17673897      5.46650434    3.84085730    6.38923181
    1   -7.74241645   -0.31653779   -6.95652189   1018.30573941  582.50882844 4607.18659838     10.90068998   -1.50150000    8.82078473
    1   -6.77055716   -0.59441084   -8.08340793   4860.91784249 -504.13962874  195.37342838      3.87843758   26.96912012    1.44660468
    8   -9.60018926   -6.07204105   -6.96508514    -69.63206874   77.92597297 -152.10951536      4.49661789    6.08256051    5.38708394
    1  -10.30841969   -6.57696669   -7.43049384     15.26131524  -54.76867604   69.23322942     14.69095493   26.45399533    0.72985719
    1   -9.45619058   -5.23869808   -7.54398492     51.05236755  -21.22837065   80.72582195     -0.62542633  -19.87771607    3.04848776
    8   10.19973499    9.09202850    5.84084992   -148.67187323  137.34572583   64.29189871      8.49240900    6.31122335    6.93282094
    1   10.50178100    8.30752009    5.40604126    150.50125502    7.67094361   24.31822126     -1.15300128    1.61027883   -6.14821752
    1  -10.16196778    9.53012812    6.23360702      6.27112864 -141.54410134  -86.70192781     -8.98731001    0.43708460   -4.41462991
    8   10.47474425   -4.11330850   -4.81516400    135.94391579 -129.93087523   59.70580120      7.14657695    6.55069762    2.79405788
    1  -10.48886906   -4.55902913   -3.94149049    -87.04758206   70.68235309    5.64420740    -27.26833192   -5.08050111   -2.94161460
    1  -10.20369083   -4.53365145   -5.48652149    -50.63618949   57.12489074  -71.28200856      2.45014105   -4.83290707   18.63124165
    8   -3.62367345   -5.79961795    8.61712836   3183.88267261-3340.34559704 4313.02854587      8.80643147    1.06144158    6.58404248
    1   -3.94563036   -6.59909573    9.06943991  -3527.11091030  251.97364489-2085.52205773    -25.71081490   23.32378503   -1.16431946
    1   -2.66884636   -5.64986104    9.01153773    345.48891047 3088.42900428-2229.60637315    -16.86241745   40.30738412  -16.08468742
    8   -3.57615090   -2.52582980    1.17738191   7882.28500859**************-6302.00892913     14.43235259   -9.48503019   -0.43346559
    1   -3.13343847   -3.54825490    1.69560049  -3812.98196682 2656.65038201 7857.16238464    -64.14416675  199.36629655  -65.96534569
    1   -3.18527510   -2.60710717   -0.01496007  -4078.88562742 7788.43068466-1559.83750138   -112.41233539   10.53707723  192.93674251
    8    0.24926897   -8.70186731   -1.56808239   -239.88518648   76.34785580   -2.19812935      4.22996075    5.76354997    7.02218695
    1   -0.44137286   -8.11636534   -1.05194564    130.10671717  -17.02737039   36.19887528      8.74801390  -14.20892859  -23.30985616
    1   -0.26280653   -9.07673391   -2.32941610    107.56543509  -58.37643115  -33.84283996     16.53191841   27.92570261   13.23073884
    8   -9.28626592   -6.67769526    8.32931465   5155.63789689-5052.56424231 2082.36153983      6.64315329    4.13614927    5.64785575
    1  -10.28019294   -6.74589897    8.45556754   -537.46712187 4366.75237418-2158.55416070     23.08491776   57.03357898  -14.07674309
    1   -9.13624453   -5.75225822    7.84770686  -4619.35198562  688.51275625   75.40119359    -43.01114248  -15.36034771   21.85666098
    8    1.83753145    4.10433171    1.17284335      1.10451370  150.66182771 -492.33041552      3.78118153    4.69079640    5.44814292
    1    2.63838893    4.22623731    1.81854454   -249.13103915 -163.99715338  210.99748641      0.01440666    3.53382469  -18.79405066
    1    1.13535612    3.66400426    1.72535506    246.67700665   11.30887794  274.89188315     24.85823320    8.77723647   -4.36652941
    8   -9.63556537   -5.19808690   -0.75933011    373.71472289  817.36017894  796.18402973     11.61788058   16.40006514   15.85102268
    1   -9.86314219   -6.09624741   -0.60187443   -158.62639109 -112.06492170 -730.07278030    -30.85676756  -29.08504004 -123.13381281
    1   -9.76528355   -5.07701512   -1.71121602   -215.38199117 -703.87090984  -59.09171115    -65.04291154 -131.68637701   -3.14383912
    8   -8.60266646   -2.37550089    6.04512403    603.28942724  398.49490147 -350.91042999     17.36540582   14.49827445   -4.20831929
    1   -8.65666729   -3.32516522    6.28999138   -486.67776411   83.16765239  186.09974150   -171.00356310   17.79646253   83.63585574
    1   -9.47694656   -1.99251538    6.33224555   -124.05265656 -479.62823134  161.75188898    -45.17989093 -155.47578558   66.54484694
    8    0.46560672   -9.10875914    4.49497928   3038.55739348-3274.68899188-5904.22535673      5.22740117    2.84668603    3.64309939
    1    0.45686454   -9.43161314    5.42033847  -2378.45071906 3799.07899803 1286.56139320      5.01550635   59.29193525   25.33526543
    1   -0.01069493   -8.26289078    4.52081727   -656.99110734 -518.53861716 4627.22957926     14.60180316   15.37416361   44.74394016
    8   -7.81078440   -7.70908857   10.47981762     64.09775885 -291.99890973  110.84262090      4.56162691    8.16579067    9.52396937
    1   -7.33347950   -6.95176646  -10.16964066   -137.79355131   85.78259808 -182.54137918      2.36448584   -4.48828871   -9.37256536
    1   -8.30405384   -7.22346348    9.81469589     69.22162159  212.94818211   79.86899586     -3.97904664  -12.17925065  -13.79387990
    8   -4.01000098    4.44791359   -1.85639571  -1625.40188516  711.76123556  531.34526808      5.51022403    3.31208200    4.74588189
    1   -4.84165766    4.04033277   -2.03568826    540.90428360 -922.59752342 -576.91240728     -4.09163837   27.44021145   14.49374117
    1   -4.25163503    5.30868882   -1.33873996   1084.58313569  210.55291036   45.03219155     14.55840209   -4.57106198   -6.43252536
    8    3.32001802   -5.13535330    9.21414199  -9117.29070016 9404.84126593 4943.79049347      1.57132438    7.89722086    7.81559677
    1    2.46281428   -4.88356151    8.81101515   1466.99615864-5890.44176041-6794.53529509      0.02057764   -6.94459905  -13.13715090
    1    3.37330311   -4.54793891   10.06618262   7642.47917578-3514.90782179 1856.04146290     24.79038619  -19.67191307    9.94865678
    8   -0.87022642    7.05378446    3.61606576   5669.24111428 1990.05137282-8215.68950960      2.97551879    5.05889854    9.01935522
    1   -1.19659615    7.26105489    2.72973823  -6246.04683040 -557.56261790 2164.49732646     38.92460458    6.61998587   -6.61290738
    1    0.15051344    7.08402023    3.51729044    574.01828681-1431.08354594 6052.81069418    -11.08573142   19.76058460  -31.88026679
    8   -1.22123147   -1.81568060   -5.85305068  -1206.32826635 -898.35559342  624.82925732     -1.82632682    0.77678088    6.97968935
    1   -0.57778295   -2.06179475   -6.52420474    454.99635609  966.40651842   55.52852489     55.14461447   93.55189210    6.02712230
    1   -0.98316079   -0.85818534   -5.60850597    749.32400857  -63.15097987 -679.66422474     65.57238324   -5.64711562  -29.83760143
    8    1.35355139    4.26821784    8.97071883    232.99838728 -945.56873884  803.57022490      8.03086440    0.45598015   10.73421298
    1    1.97513097    4.19559638    9.83774895    131.35404842  683.85366941 -179.22048422     -7.47258881   45.83227180  -26.02358049
    1    0.93564253    3.35846786    8.88483510   -363.02103945  263.11929806 -616.63762181    -12.85908120   45.81440399  -16.61701324
    8    1.45626760   -0.25380429   -8.60855388  -2727.28179806  831.83455678-2379.11173035      3.28849058    8.31041082    1.92753003
    1    0.87604376    0.56608789   -8.65744732   1107.49006202  852.62622621 1801.38000250     36.09875097   16.33824780   31.38051287
    1    1.15054276   -0.80260674   -9.32735168   1624.31811417-1675.79225447  578.08383678     27.17981100  -12.62190417   29.94619136
    8   -1.71851567   -0.09164856   -0.46922109   -938.57163689 3732.13343001-2477.33673093      3.89526098    4.72432381    4.42203841
    1   -2.56776869    0.15108269   -0.77808759  -1213.56705778-2449.36824092 1285.83101968     -9.74699702    7.40313194   14.77787539
    1   -1.10652250    0.64671900   -0.81121646   2146.73998056-1286.85056347 1188.17143711      8.93449956   -6.29349685    3.95592044
    8    4.33649504   -1.87384562    9.11946403    -39.75491464   19.53068347   30.83359590      9.22044838    7.29436531    8.33678533
    1    5.22079315   -2.13643305    8.72012927     -6.12144003   58.23048230   59.90751455    -17.41866095   -4.60074803   -0.95224047
    1    4.57854033   -1.12921696    9.83582268     45.65423916  -74.50176913  -77.90028452    -25.88161651  -13.45799739    9.30443886
    8    8.15934930    4.57620130    0.50239883   -548.30882991 1413.19321711 2839.37989142      6.58781325    0.52362930   -3.69241006
    1    8.59751459    5.47930473    0.92744408   1009.00378551  120.96680656-1623.69921607    -82.38598634  -34.21879650   79.07794530
    1    7.49625331    4.24613079    1.22854801   -468.35041386-1540.67397663-1217.55868422     54.29778300   77.37547541   53.30070022
    8   -7.19499746    2.11062503    4.96521534  -7479.56628133 3879.1316976710122.22360600      6.56764965    3.35553815    0.09203114
    1   -6.85827533    1.20775505    4.78963672   3764.17338705 2765.66150446-6919.62404684    -26.40335241  -12.77563240   46.54478208
    1   -6.85260385    2.66554948    4.21986683   3711.31256756-6646.56726495-3205.20870646     -5.17517804   46.60222302   35.15475617
    8   -6.56592850    7.85403007    8.54294710   3513.73561782-1585.97275298 1808.96213870      5.49207395    3.66522948    7.12000370
    1   -6.52901848    7.26373227    9.31340237  -2737.66332576   45.67195944  158.11098319     -1.75389813   13.08152642   13.45160090
    1   -5.58880126    7.99171721    8.28426214   -777.63273694 1536.74389850-1963.22964481     -2.37323233    6.07073989  -21.50023308
    8  -10.44375705    3.55504749   -8.41232146    312.75553337 -666.76071088  -23.83751709     -0.05030547   14.56859737    6.08426159
    1  -10.35638894    2.86206978   -7.71163586   -224.12078268  281.74012992  282.17739032     46.72092872  -67.44285436  -66.40637710
    1  -10.02203375    3.17155078   -9.18247156    -93.49073343  384.25855088 -259.71015992     28.85507977  -81.32124158   55.15039565
    8   -3.97228801   -5.69301962   -4.14482287   -205.93768936-2099.08784472-2235.07538974      5.72909575    5.09572861    5.71722585
    1   -3.83654985   -5.85861624   -3.17530200    -38.15487230 1960.42786304  311.75221580      3.09952876   -0.97692345    5.77154801
    1   -4.02186859   -4.68440292   -4.22878961    247.75647663  137.02514288 1926.31912671     18.10792061    1.74311224    8.68148195
    8   -2.04111863    4.05433563    8.13094502  -3392.72851749  678.81255734 5685.87629443      4.08891922    3.95892414    4.01940846
    1   -1.96129156    3.22596552    7.58163834   2513.59685533 2162.53989763-2851.03429635     25.01633960   39.81694186   -2.96600279
    1   -1.47224115    4.78331623    7.60974335    875.27902690-2839.02568969-2842.40729468    -15.65613947  -17.74762865    3.51198901
    8    4.49172462   -3.92542338   -8.71970517  -1061.09015277  545.32985891  603.56370340      3.56754378    7.25093783    7.93969080
    1    3.75641040   -3.37665891   -9.16463312    398.67102216 -114.29637768 -690.77020647     12.09817949  -31.68858379    0.13452473
    1    4.21864984   -3.96376778   -7.72603829    662.76969759 -436.42513376   89.14923074     29.27426070  -11.46797383  -15.46134004
    8    7.49689510   -6.09389769   -0.19683446      6.96132889    2.51169034   78.34041391      6.37339698    3.40220596    9.15249045
    1    8.02069735   -6.93003826   -0.05230097    -16.66626599   21.62968372   -5.04302397      7.89068427   20.28339877   -9.04430831
    1    7.26640355   -5.76373032    0.75727078     13.76576049  -24.99142593  -70.10842240      6.96130410   12.62519366  -22.30966902
    8    3.67944125    9.84272708    0.05565604   6648.52890431 1285.80704261 4122.22801906     13.32177098    8.29012605   10.88579807
    1    4.16120969  -10.45283330    0.33587325  -3514.86190761 2316.56684135-2239.87256708    -51.70573221   -7.25403898  -24.94090973
    1    4.28690279    9.12699754    0.44890059  -3127.01956402-3605.06440716-1870.38926784    -45.60705450  -36.65155381   -8.90401933
    8    7.17559008    0.09924369   -3.87708446  -6847.90984069-5862.54655070-3924.19662668      3.44509349    4.42378304    7.23309922
    1    7.59235757    0.92601442   -4.29117950   3489.05411733  755.14769235 5113.96199999     10.88783530   10.30266631   16.99185270
    1    7.61864797    0.00751005   -2.96705992   3358.86589484 5111.14366765-1179.29842838     23.86209201   22.91836536   -3.88992366
    8    2.98663434    2.01210043  -10.13491250    387.83128240 -231.73856242 -175.21930361      5.47474606    5.47459475    2.73328161
    1    3.54868646    2.14263112   10.27682322   -186.83153903  213.37159896  -42.65459152     -8.66206008    2.71588547   25.99467011
    1    3.38120451    1.24563957   -9.69108689   -203.51726207   18.71143960  210.99796565     10.61433763    3.36217612    1.15978960
    8    5.60744711   -5.99591799   -2.25144541    149.53422966  885.21239639-8008.51901792      5.25151765    7.74178931   -3.70740331
    1    5.98302022   -5.35896389   -1.52480465  -1567.07623658-3156.02650156 3464.00316003    -23.39330992  -60.50383079   56.65731529
    1    5.22497618   -6.73934506   -1.75949354   1417.88877324 2268.23807536 4540.73964082     34.41851230   23.90540265   76.95081556
    8    6.33764152    3.73552951    2.29653914  -8305.03931457 3901.94306313 3264.71617261      0.90330726    7.51397837    9.42413295
    1    5.45260819    3.36976431    2.17267757   2477.89398057-4915.94694449-3229.36080282     27.06031625  -28.00308027  -12.95161206
    1    6.17520225    4.60871740    2.83957008   5828.12455811 1013.36119587  -23.54851455     50.76697084   -7.27594838   15.48842986
    8   -3.46239884   -1.93443150    6.31241008   2132.83675541 2201.06079754 2537.21660091     18.28854279   19.19161534   19.16484619
    1   -3.96880039   -2.76077620    6.50617213   -706.45523658 -123.26902499-2416.20162530    -84.37553655  -19.99313679 -191.59151470
    1   -3.60257622   -1.77416946    5.34781947  -1427.47018018-2075.07324053 -120.44354321   -113.30156187 -175.44877984  -21.58443352
    8    2.98882135    5.21950190   -3.87331195  14193.28063284**************19775.64013333      6.06552516    4.06343556    9.10672702
    1    2.85287120    5.24877734   -2.76109427  **************11330.37067168-2063.57127143    -39.05328785   14.49079106   -4.30542922
    1    3.82746058    4.51949360   -3.99795336   -979.47508256 2191.71080555**************     26.34375195   11.53007371  -17.02099911
    8    7.51297484   -1.79322051  -10.31598549  -4420.80889275-1721.16573524 5339.74963151      7.41882655    8.02897570    1.34167484
    1    6.98088268   -1.17941444   -9.70389694   1684.61481954 3494.98638229-2137.47800324      0.82604601  -47.58857758   22.90192383
    1    7.28112994   -2.70094731  -10.00730110   2736.63222197-1769.32678998-3208.78693469    -19.50305718   34.21373585   23.37955912
    8    1.57473073   -2.16561941   -3.41755374   1801.84190400 -222.89352050-1295.05807958      8.01486133    5.78117167    2.65733423
    1    2.27116694   -2.88907664   -3.34736635   -715.89815357 -527.66399924 1070.87873018    -15.07085650   14.83968745   27.42824387
    1    1.89474716   -1.57288883   -4.22029090  -1087.24933985  748.97101360  218.85170453    -20.45013251  -23.38790711    1.18156893
    8    5.82250040   -8.26239771   -5.26354625   1493.83829071  683.64750075 9158.39011846      5.32388155    4.30082687   10.40991436
    1    5.36770485   -7.59806573   -4.56536396  -3101.98443965 2252.06184936-4322.95483302      0.57103035  -10.17631601  -42.19304370
    1    6.48253057   -8.82834458   -4.68105465   1605.64840920-2937.32846230-4835.34209498      1.83329005   27.90632762  -34.98450190
    8    8.86642616   -5.95330267    3.43403332  -2872.45212759-1126.88926422 -603.71705415      2.80489304    4.41089110    4.13375033
    1    9.55362818   -6.33179814    4.05303203   1234.05083441 1508.32838807 -494.62368157     21.12760966    5.54757093   -7.19579518
    1    9.29512340   -5.13375663    3.04892435   1638.55588559 -387.60543723 1091.32068144     29.81032655   -7.56517307   11.02936363
    8   -4.58982972    3.52416586    7.00846658   -915.87772874  -44.97807804 -251.68964916      4.15086143    6.50302952    6.11115980
    1   -3.82049770    2.92311234    6.76255519    378.53262203  394.42683567  374.38502694     -6.35994710   14.33623491   17.34706773
    1   -4.16414705    4.25693710    7.63541176    531.13192064 -347.50413262 -119.57593542      4.70820536  -17.88642292   -4.68565829
    8    6.77056036    9.70966671    3.22033627  -5114.76883381 1278.86391248-4432.05189971      4.86309816    6.24412328    5.78890784
    1    6.69402938    9.30392784    4.11002269   4387.28295908  363.43532836  524.33918896     20.83626414   -0.75252129    5.73631298
    1    7.75690892    9.89645586    3.10390103    729.59424220-1641.54529296 3907.57480318      5.49451340   -1.47077765   -2.17073149
    8   -0.86351611    6.05989716    6.78079929   3463.45977580 2122.61883351-3402.88884970      5.28812360    5.81910616    2.61168447
    1   -1.08538371    6.52702449    5.97142393  -3362.14293218 -492.23638187  631.57035293    -14.77483573    4.44930893    9.92336025
    1    0.16681322    6.07909187    6.81016280   -107.45567549-1634.33533658 2767.13631353     -8.44784910  -10.59736931   17.81591941
    8    2.24656468   -0.64115388   -5.65131562   1054.91861320-6946.55467642 1904.77709373      5.15642819    2.66977641    8.44585076
    1    1.89014631   -0.30456117   -6.53625301    406.44775693 4492.28296162 1595.19888144     27.12299923   40.40151065   34.24317854
    1    2.42885037    0.24471636   -5.07103351  -1462.21829757 2458.28298448-3501.43880067    -13.29951685   34.06254043  -87.15800998
    8   -4.78160002    6.69924360   -0.62198163   -358.28172593 4643.25823317 -346.50976065      3.57215469   14.03052389    6.11956808
    1   -4.99489296    7.18950884   -1.42185725   -197.88917744-2598.56684308-1551.93713919     16.47194915  -74.66210821  -56.87253489
    1   -4.66165629    7.42179303    0.09208167    556.77179043-2045.86110131 1901.84121773     22.55020522  -58.55032587   67.97612968
    8   -7.07599993    1.55752826    1.27304050     85.70357600   34.36187288   72.76443204      7.52802508    6.31362453    5.80655660
    1   -6.57066298    2.24731532    1.89833042    -53.82445917  -46.96025804  -53.90913282    -14.87646090   -3.97535147   15.97153290
    1   -6.45520357    0.76589013    1.21671455    -34.42817746   16.58382933  -11.15371498    -16.19460332    4.23873760   12.99313786
    8   -6.74441338   10.39523640   -0.23940964   -141.56337605  400.24089481-1606.46398397      5.92590220    5.56424351    4.09385785
    1   -6.15437714  -10.27463874   -0.85055961    592.37085475  138.11464382  785.26796290     -3.23372914   -8.48507322   11.00016458
    1   -7.45385755   10.10891794   -0.79583856   -445.87611010 -538.23178769  818.13239592     15.99700095   10.29416242    7.50061836
    8   -1.18024807   -7.08533340   10.40205832   -333.96881135  734.56899450  -26.82731625      1.23675955   13.35327510    4.63176568
    1   -1.59733627   -7.95351544   10.47024866    499.86577784 -238.91911517   -8.57727389    113.38608399  -38.88768716   -2.72211803
    1   -0.16813935   -7.28495733   10.37607039   -163.92353157 -498.02820942   31.00483490    -31.87802192  -85.40416148    6.61508326
    8    8.15783341    4.88237617    9.45768135    783.93276954  575.45668588 2550.89424653      0.34341445    4.86105765   -3.02291340
    1    8.26561662    5.79031186    9.92041606   -480.36269706  714.43038270-1410.68045703     47.78334754  -47.65490685  104.84451141
    1    8.40281391    4.23141207   10.14168065   -304.60637718-1283.28887103-1135.75172601     39.88391683   76.74926648   75.60935114
    8    1.50585942   -7.21796929    6.91995049  -1945.89134201 1133.14398949 2226.89524557      1.96947329    7.06435806    8.19572905
    1    0.66526591   -7.60062347    7.16016519    256.22210909-1488.92878237-1400.96493421     15.77998471  -37.15089783  -26.72898260
    1    1.59818697   -6.40220860    7.53350503   1688.00008320  355.25049704 -829.78901565     40.16656758   13.50005641  -24.88719357
    8    9.85097423    6.61636486   -4.66123492   -733.13526417 5392.59672014 -673.78907721      6.62568212    6.12880531    3.39054181
    1    9.04025698    7.14046531   -4.42611739  -1528.12808137-2932.44670895 1150.16329450      9.89760760   -9.94261075    6.97900026
    1   10.49783344    7.31346297   -5.05152647   2264.71525613-2462.10859488 -481.57343839     -9.49520884    1.30919976   13.98931110
    8    5.21078586   -3.18503397    6.29826681   -877.64535204-1320.76016616  193.01417507      0.75656974   -0.31827059    6.30278401
    1    5.36471362   -3.98079196    6.90597481    799.44781299  446.29472610  298.74093931     21.58716381   31.39576164   -2.33151198
    1    4.37788008   -3.39524079    5.82680695     71.56664730  865.19331038 -488.98655272     26.07575826   26.23139782    5.25067372
    8   -9.59420551    4.41955093   -4.35692975    197.87408499 -194.68468777 -236.23690609      2.83110109    6.96959931    4.63126162
    1  -10.16039946    5.23902197   -4.52112117    -45.60806987  -23.75151444  270.09011397     14.40242963   -6.21105446    9.99073602
    1   -9.67762677    4.24543202   -3.33961628   -161.20797335  216.63391769  -38.89446314      3.74943020  -10.48147855  -12.71956063
    8    3.35785415    0.46154286    5.80656555    -62.21421797  -93.54565735 1209.43109147      4.75877597    5.84722388    4.71395038
    1    2.67476574    0.25108402    5.13111722    514.19076366  225.74257704 -586.72175522     27.99110178   12.79946294    9.29396458
    1    4.16931011    0.79692824    5.26061092   -451.96832094 -132.73773893 -620.66875771    -10.82798902  -10.92615641   20.23073292
    8    2.86005990   -0.01387443    0.67868041  -8779.00683133-3087.69289431-4282.09054757     -1.86703571    1.60367326    2.12407729
    1    2.57630901    0.09227135   -0.25003843   5603.42938109 3040.18130169-1365.96056625     95.32264648   71.42504698  -10.38104664
    1    2.11017936   -0.48374394    1.10320462   3177.69980323   47.44160028 5651.94838185     40.62868793    6.62928616   82.86133841
    8   -2.57335398    0.96823223    9.85570192    775.48763062 1212.50343739 1520.81122928      1.90677357   -3.40572897   -3.45312023
    1   -2.08260333    0.49992649    9.17582200  -1117.84037453 -470.30444115 -493.18897648    120.33017124   63.26765821   36.88867155
    1   -3.48779363    0.75462525    9.68339669    349.09283323 -747.70910922-1027.92845856    -32.19063437   58.79620707  107.10656955
    8   -4.19399649   -2.98886795   -4.14341222     34.00493683   49.90338776   54.47029688      5.30578019    5.18834048    7.65804090
    1   -4.77398970   -2.77760059   -4.89173710      1.06506089   13.29279965    2.42056786     24.96262359   -2.09540067    3.37095923
    1   -4.00578367   -2.05852631   -3.68387194    -28.23858710  -67.17936372  -54.42109271     20.29134151   -9.65444780  -20.45733736
    8    1.41053032    8.86510827    6.27669039   1326.96753873-1374.94812689 3881.82303216      5.17873402    5.52579991    5.59738081
    1    1.41460630    7.91886043    6.57473514  -1038.53573668 -760.15492944-2484.71732915     18.17566053   29.47792747   20.96705237
    1    1.79789976    9.41305365    7.12385464   -286.54438874 2137.29210676-1390.88788792     -5.86850098  -20.41840620   -2.08161737
    8   -0.98985938   -8.92521576    7.35247617  32591.57795416 2903.80632684**************    -12.36540853    2.09384578   15.21204146
    1   -2.10535603   -8.75978973    6.89302553  -9049.74467147-4674.2518566521008.46343691     76.23839545   27.74699677 -145.39573867
    1   -1.12516921   -9.19984056    8.50948407  ************** 1765.40030800-2598.98892129    204.42279038    9.10737353   -4.51335875
    8    5.67292416    8.64425786    5.85906305    478.08710640  202.96993436  -29.93981800     10.30951608    7.59258464    1.82936351
    1    5.33551658    8.05985581    6.55356526   -271.88288198  -16.33968284 -143.52524899    -20.60554824    0.37993825  -20.94417522
    1    4.94854259    8.75123963    5.26752711   -202.40536001 -184.98102405  164.35959992    -32.39858804  -17.27721368   49.14096158
    8    9.54419134   -4.79126837   10.10203266   -147.64676751 -251.36462147  343.19485694      6.62622528    6.74671267    6.17969311
    1    9.24761308   -4.69250215  -10.14874336     66.56413413  239.37722152  -78.37626170      9.74726161   -4.89181450  -18.32755102
    1    9.43502482   -5.71513274    9.91244360     83.61707520   16.20871202 -268.63096035    -10.19222288    7.49772553   -2.77237087
    8   -0.93178344    5.71836908    9.86107277    354.28044060-1392.84340010-1612.42849312      6.79634588    7.04010838    7.09288121
    1   -1.54916664    5.48224309    9.21505276   -989.77469395  858.02206199  563.64768447      3.35415542    1.89607917    8.79598357
    1   -0.13608020    5.20284779    9.63589591    643.52275039  544.61990768 1055.58652424     17.94322779   28.15676093    7.48440319
    8   -6.58775351   -1.10805262    7.27872056   5215.19239107 5083.7587251212109.37351984      6.70014633    8.80731102   10.62804543
    1   -7.29074750   -1.74282509    7.17497713    848.04241650  476.74187520-8868.12812525     -6.54656264    8.26810640  -58.99755701
    1   -6.31101853   -0.88844494    6.38439383  -6062.54438916-5551.56563253-3241.48165908    -10.76454081  -13.13403952  -20.10865584
    8    5.00145443    4.57837073   -8.60217604     53.09920685   77.45503817   -5.09013511      6.20056268    7.13940082    4.06498035
    1    5.55528485    4.03201539   -9.21765495    -14.30108644    8.77454261    9.56135851     -7.82498181    4.86617716   16.31196388
    1    5.47734554    5.52576728   -8.58649528    -38.81463682  -80.65701750   -6.33463417      5.36363513  -17.31893101    7.85076664
    8    6.26765013   -7.75400082    7.23259047    357.27971386 -309.31870562   83.44248243      2.04767187    5.96382701    5.05057608
    1    5.45358569   -7.76557944    6.67647439    -77.57883531  322.16702267  113.10448720     20.89156388    2.84694449   11.24872925
    1    6.25340055   -6.79891255    7.70896197   -282.42028624  -14.14000581 -197.78659464     21.90429620  -16.53659045   -9.71570807
    8    6.50900261   -0.99678082    5.76241293   2288.65406399-8737.52908774 -465.97621328      5.35516778   16.51307090    4.99418807
    1    7.32238558   -1.39644953    5.38664794   1911.12593034 5199.14554862-1358.29143958    -21.89049259  -63.28416635   13.71582607
    1    5.99785256   -1.75600641    6.07588998  -4192.58343415 3548.82311487 1818.41380319     63.35359509  -53.51103091  -22.46584684
    8   -7.07570116   -2.68169692   -3.54171814   8996.70972567-5808.52327001 -954.11527281      4.17339268    4.69808986    5.56918324
    1   -6.53393877   -2.82517372   -4.35636996  -4363.00625146 3914.40602685-3569.00155244     -8.59488646    0.86334145    4.08532533
    1   -6.59017744   -3.20274777   -2.83366283  -4644.35031338 1894.01542399 4527.82026186    -10.78003532   16.14172954   17.76898748
    8   -2.16907461    1.72844626    1.77364445    375.19417787  709.53107823-4264.71036995      6.33586733    5.17771797    2.79874178
    1   -2.06620780    2.61354760    1.27009586    -79.73550472 1274.74596795 2336.27775688      1.59764327   -3.70209720   26.62865026
    1   -2.16820629    1.04830744    1.06927487   -289.77800287-1985.46082394 1932.07454712     17.54005046   12.78332615   25.15798462
    8   -0.36916954    1.81589111   -1.78891159   -240.64466092  -26.03062392  -59.76128148     10.15127474    5.36904009    6.28280021
    1   -0.07113748    2.65877739   -1.24422563    163.61959045 -136.46488050  -45.96251488    -30.33253825    0.27751285   -0.93858156
    1    0.47435955    1.29201348   -1.92320555     84.88767863  163.63895660  109.83967971      1.92981187   12.58840910    8.72101372
    8   10.57670821   -6.18375835   -3.12564070   -417.85776740 -666.64031064 -400.30348007      7.04635522    2.68799846    4.71686857
    1  -10.27941015   -6.92486562   -3.64881897    493.13023423  206.90250566   95.00896019    -26.87200918   -1.62104871   19.89688577
    1    9.61142067   -6.34160587   -3.14376183    -73.01444023  450.13739782  302.82953150     23.91697518   -3.97023005   -8.43223930
    8    4.63542962   -8.71524402   -8.04932772   4342.17079012-8307.38411835-8559.13991504      7.11987225    3.46066461    1.13594645
    1    5.17389352   -8.09154140   -7.43991873  -6672.90421745 2718.13904405 2998.18260490     -8.32925123   -0.91629984   17.93908104
    1    3.70237952   -8.53837633   -7.83559740   2333.30897636 5586.42727965 5559.22283062      6.70919106   23.90300750   56.14552163
    8   -4.95964523    8.82380147    1.14059246   -376.04093356  227.67081740  319.86009629      9.55288686    2.13817495    2.66150520