 BEGIN_INFO
   #
   # This is a XCRYSDEN-Structure-File
   #
   # aimed for Visualization of geometry
   #
   # Launch as: xcrysden --xsf HICOLM.XSF
   #
   #
 END_INFO
 # estrutura final
CRYSTAL
PRIMVEC
      20.62750638       0.00000000       0.00000000
       0.00000000      20.62750638       0.00000000
       0.00000000       0.00000000      20.62750638
PRIMCOORD
  927    1
    8    4.82294420    3.55970285    2.39144722    -16.98371565  -40.44022827  -41.82945214      7.69455573    5.34507958    6.42300477
    1    5.33848513    3.36280390    3.16697845     11.16263144   17.35646333   27.76748651      0.71673846    8.55916575    9.17195930
    1    4.61232144    4.49401551    2.43380530      4.96930492   23.54913008   18.24317905     -3.22069275   -1.91494105   -5.85300892
    8    9.57763708    7.74159417    1.09800773      3.03534174   24.25097483   -7.77251477      1.94627772    3.86954951    5.31594023
    1    8.82340620    7.32346929    1.52147611     -5.54519760  -10.93213599    3.85867595     23.63512809    7.03301452   15.18062240
    1  -10.28752569    7.47113669    1.63780191      2.15990404  -12.41575376   -0.63125789     16.81503445   16.27219834    0.14343876
    8   10.09594722  -10.21025451    7.27469683    -17.45873604   82.40716508  -15.97280515      8.54411451    0.09201916    8.58784970
    1   10.26964400   -9.47394108    6.52858078    -19.20519242  -54.96224550   63.00035376      5.48374087   42.85749490  -36.75673456
    1    9.47903428   -9.73734529    7.95821192     33.25847094  -20.97969255  -48.33667911    -29.43818765   35.96573620   20.58140902
    8   -0.84267360    6.98515827   -8.84402558     16.42265520   -6.72553918   -9.88174644      4.44089179    6.20762006    4.58547221
    1   -1.47823928    7.23071935   -8.14472830      8.83480967   -4.77979619    9.77271958     -0.92872082   -2.52849998   17.83500399
    1   -0.04848582    6.61140009   -8.36734851    -23.46447879    9.61214401    1.85556917     35.04469584   -8.21971803   12.38095594
    8   -8.76976175   -8.53879805  -10.06748596     34.83121091  -63.88036914    3.61651344      4.73557312    8.66128168    7.16449475
    1   -8.22542443   -7.93549877   10.07579168      9.29503035   26.99633381  -19.44011835    -20.47269909   -9.15901473    9.34373632
    1   -9.49452418   -8.04046831   -9.77697426    -42.61445058   35.05911127   10.76357417     31.43268486  -30.33013627   -8.42625444
    8    5.19761306   -1.07429729    7.51407266     46.26444844   39.10787031  -17.60222140      2.71706068    3.07343109    7.94292962
    1    5.81021951   -0.22529545    7.55943144    -31.00791028  -66.59634099   -3.46203098     45.12878811   70.59327476   -7.39281082
    1    5.73201955   -1.73786004    6.96898062    -14.14433691   25.46042423   24.04123656     22.93257338  -18.26068845    1.58398361
    8    3.53721986   10.27920002    7.54777283     27.66085138    7.35028307   29.07590171      3.74274865    5.47501089    3.18601294
    1    2.74100200  -10.04080011    7.11839694    -20.76574562    7.19417661  -12.42432438     31.10040688   -8.46824381   23.22436111
    1    3.60263065   -9.71935955    8.31856137     -6.79052738  -15.14876342  -16.29815513     -0.08584504    0.17646466   24.76939614
    8    3.97755962    7.98621662   -5.17171960    -22.32689586  -13.76662105   20.66012742      7.35633836    5.56083070    5.98558221
    1    4.18173313    8.83475080   -4.72076981     10.00197021    0.76973424  -15.01800694     -0.20644783   21.02736549   21.12265383
    1    4.69563181    7.82005698   -5.80223328      8.35617843   13.70507647   -6.01267785      3.61463299   17.31868411   -0.65651487
    8   -2.19718278   -5.85231418    9.74426976      5.04265974   -8.48154494    0.17075947      5.35883405    6.22093711    2.22818215
    1   -2.28916256   -4.99484162   10.24305895     19.28918298  -19.63788252   -2.06904678     -4.92704154   33.33816392   36.13496619
    1   -1.38796461   -6.31896819   10.12664192    -21.93687701   27.47698725   -1.39020068     35.53350641  -28.00131845   17.87905106
    8   -1.85720954    1.97371786   -6.72090065     19.07296462  -18.42724015    2.85187343      6.50030756    6.72751001    4.19463263
    1   -1.94547915    2.66344811   -6.06168771     -8.68249940   16.30159854    8.37953634     -6.50660582   -0.07977705    1.30216332
    1   -2.23389053    2.36730139   -7.51724281    -10.27678485    4.44452616   -8.28029123     -8.67589508   -7.61118251   26.11932525
    8    1.84375089    5.54972989    4.59978062     -0.43071196   -0.02900849    3.73145139      4.28011682    3.65225168    3.83793039
    1    1.96295726    6.29460946    4.01007941     11.36007588   21.02329062   -6.74915087      9.30375763  -15.17957681   20.39265127
    1    1.32870570    5.00069064    4.00217823     -8.83566600  -20.51712424    1.74916830     29.26693781   40.65694886   19.10064265
    8    7.70106594   -5.72337966   -4.64300485     13.26301177   -5.17481588    3.83212392      4.17033028    4.81220722    7.00539186
    1    8.56499944   -5.80499065   -5.10022114    -12.49577212    4.83775212    0.86407717     11.73845159    3.92773456    4.35010693
    1    7.54411221   -6.63325373   -4.32452136     -3.65698663    1.16097113   -5.29119631     13.80193991    7.15624562   -6.42884350
    8   -8.54791332    9.03461445    3.49145726    -16.05814178  -24.17186932   26.48175506      7.26389751    5.85325441    5.20461916
    1   -8.68035309    8.17963931    3.02688478      6.45467710   12.44610887   -5.12464935     -0.26875689   12.19105741   10.40970050
    1   -8.79390010    8.75606033    4.41962134      5.72565976   12.89655533  -16.79031146    -14.36281263    1.53687062   18.24165559
    8   -1.76352906   -8.10030301    3.40863346    -49.80949262   36.27788182  -28.90888487      5.93748524    5.42022814    5.73743802
    1   -2.45883015   -8.61197409    2.90249988     26.85149611   -1.43221116   16.01849456     12.32045611    4.09552074    6.47399528
    1   -2.14893395   -7.17152155    3.28219202     21.35415967  -32.05633289    9.69981983     -6.86519513   27.67787816  -12.63542242
    8   -1.11083955    4.60400351    6.99776653    -12.94972484   17.80873202    6.12625907      5.06967957    3.59021335    3.61252413
    1   -0.93122543    5.25960378    7.72435560     10.71075679  -24.89414672  -11.27133860      7.01270436   42.40151099   27.45204588
    1   -0.28167289    4.10332754    6.87990338      4.53629858    5.20581543    8.04430349     14.77315753    9.75729136   -1.57570169
    8    3.12015274    1.43503719    2.03228260     -9.10038276  -12.16856597   44.96668780      5.83284600    6.69223159    2.84211910
    1    3.68190742    2.19768506    2.20329068     10.75156538   14.26511590   -3.67052722     -7.74511386    7.61332286   -1.21596860
    1    3.06150173    1.40451536    1.09311186     -0.45458284   -2.16928469  -38.25789988      5.10604722  -10.33181725   46.77519485
    8    2.49002199    2.26510033   -7.45468817     -6.07351251    8.78369170   19.58629588      7.30832771    5.47195048    5.89245441
    1    1.97063940    1.52827196   -7.05520888      3.65169805   12.98240365   -4.81595771     -2.77687701   15.86153317   10.63867588
    1    2.26562131    3.03281823   -6.86291018     -1.14059250  -20.40754091  -11.13731667     -3.32444051   31.56751046    5.60829909
    8    6.44215760    0.59602342   -7.41320152     29.64693588  -61.66526223  -10.68466554      5.85654170    8.04164547    7.44426218
    1    7.14342323    0.04883309   -7.93352807    -39.63499953   31.45725686   22.94092918     10.34393978  -24.07137588  -20.59141232
    1    5.99431937   -0.15256731   -6.91098057      9.57515609   27.44357290  -12.61320973     -5.07461799  -13.15217795    2.91903669
    8    0.08364430   -6.82030153   -9.76298355     29.87635114  -16.17750618    7.18406714      3.62997522    6.32395545    5.79107141
    1    0.90996498   -6.38587447   -9.37995239    -20.90001164  -24.48899106  -16.83322781     47.25804936   26.95867422    2.56404841
    1    0.35788571   -7.78534079   -9.93710986     -8.05127224   39.21879156    7.38962498     15.25439437  -23.00659292   -2.22814080
    8   -3.57304292    0.05278219   -1.89102087     49.58519698  -10.48819587   15.45070392      2.42897005    5.03697966    3.62112375
    1   -3.46788503   -0.58606921   -2.63612853     -6.50043849    7.57306413   12.48873152     23.03642101    3.33800406   10.03452161
    1   -2.68813773   -0.05891115   -1.39433812    -42.75455792    0.43375000  -23.18541722     32.35083128   10.69419313   26.65782149
    8    7.59951909   -9.24555687   -6.41378435    -46.60399031  -36.81832770  -45.00150126      5.47712973    6.26352825    6.95942513
    1    7.15516274   -8.99710225   -5.60321896      7.67372658   14.98743994   22.67553600     11.33986611   -3.03833631   -8.98187660
    1    8.48654630   -8.92520441   -6.35694563     34.35859381   24.08774643   22.13491810    -11.22001763  -12.39602534   -3.89211949
    8    1.64428176    4.09402733   -5.50770232     18.35298006   -5.22468711  -13.20390482      4.93692336    5.27149561    5.49553622
    1    0.98774084    4.56113132   -4.95042508      9.46845983   -4.25073435   11.60884757     -2.47761902   13.86125768    2.32825546
    1    2.47656053    4.00597662   -4.96540834    -24.94135252    5.68869961    2.93690350     35.16897391    8.03035924   29.38544501
    8    6.74954236   -0.10333365    3.19506729    -16.41272115   62.83709206 -124.55530785      5.66332808    3.35213333   10.87118691
    1    7.21357431    0.49459064    2.42410637    -36.05033030  -58.14373959   80.42562118     42.92461645   43.23536547  -55.75646371
    1    5.83897644   -0.28844102    2.73350294     55.87676962    1.18274829   40.85988087    -28.41650897    3.19075346  -20.37918128
    8   -4.82429311    2.64288012    5.74992581    -30.62071648   -4.41970629   -9.11632356      4.79089686    6.74628919    4.64544186
    1   -4.55926255    2.44417453    6.66337427     16.41359808    4.80118349   -3.10465647     -1.29730998    8.45389341   18.23356842
    1   -4.04145859    3.02191626    5.31750075     15.73730638   -1.29403475   10.49670815      9.48928332    5.64079250   -2.32266123
    8    2.77505711   -5.23725094   -2.60557086    -73.01241039    3.74136851  -14.19633064      7.31399551    6.86784303    6.30499387
    1    2.41648002   -4.91391139   -3.48839098     23.89628582  -10.30850378   23.50330503      6.54320163    0.52445411   -7.55463662
    1    1.88684929   -5.49296627   -2.17693168     47.94303008    2.20580040   -8.42728450     -4.96816431   -3.14630307   -7.36485350
    8   -3.40800897    2.74800003   -8.84003863     16.71997965   33.38409700  -29.75424529      5.54900720    4.80912192    4.38043029
    1   -3.66938925    2.07908405   -9.48636400     -7.56967624  -17.07506297    5.76009122      6.79032936   27.99663081   24.99286464
    1   -3.07935230    3.45444563   -9.47252953     -8.69181756  -13.64228797   24.37085103      1.93730887   10.44992067   -5.65205632
    8   -0.77966583    8.09929993    4.09464368    -24.19840387  -12.29247487  -21.02501432      7.25884037    4.19311925    6.79486932
    1   -0.54208279    8.99102590    3.76837126     11.41608668   -5.56581012   16.17233297      4.54343981   21.39514857    0.04931958
    1   -0.29674443    7.92801086    4.90951871     12.84971763   16.73261242    6.18976950     -0.57268883   -1.60338135   25.33333383
    8   -8.65588066   -5.31587396   -1.71760682     -5.98511834   -4.23984056   -3.30668663      8.73259786    6.62467488    7.33325498
    1   -8.79523777   -4.51571336   -1.15530000     -2.42562351   -9.86652926    4.58374249    -16.65061922   16.94046166   24.87944861
    1   -9.31287289   -5.97833662   -1.34898972     13.59350228   15.72358618   -2.67589201     -5.33803621   -9.77247581   -8.71250667
    8    2.91393636    6.49303097   -9.51293680     50.03236260  -92.83874338   70.00040340      4.20121378   12.58838507    0.60993914
    1    3.85642482    5.94601196   -9.38725133   -109.28403540   64.20313830   -1.06873408     80.45757946  -61.24943214   11.23777242
    1    2.29522693    6.17414760   -8.70491417     61.43733861   27.15792032  -67.94423033    -40.97021575  -30.78346748   66.32868486
    8   -1.19389005    9.10718129   10.05762931     18.67681936   -9.37052605    9.30804226      5.77248916    7.46087294    6.91415481
    1   -2.06028458    9.29461480  -10.18146472     -8.96019060   -0.29320111    0.58542442      7.42264056   -9.79286786   -1.30036851
    1   -0.86426855    8.38187565   -9.98539716     -7.15261988    9.19583556   -8.34183851      8.63411006   -3.94113124   -6.03032364
    8   -3.07675338   -1.80848055   -3.88642393     23.92114830    8.40143192   12.40270424      2.91624041    5.66423077    3.95351472
    1   -2.14387846   -1.78132707   -3.52002849    -22.46939165    5.02122287  -24.55975570     29.48435686   13.56360302   25.32803295
    1   -3.06373905   -1.21316198   -4.67743212      7.42665748  -10.86730360   10.08647459     11.78149205    4.32541571   -2.99093363
    8   -8.19920013    3.23933785   -7.39380384    -50.50368717  -36.72365178  -31.70617246      6.26728778    7.89090331    5.91023605
    1   -7.26297856    3.33102895   -7.46061347     35.50294448   20.34248305   15.08169843     -1.91759169    0.85506025   -8.41837158
    1   -8.49961244    3.72299222   -6.61680803     15.86732105   16.73181559   16.02957360      0.90619176   13.31206271    8.97191558
    8   -2.53510549    6.06866870    3.54322374    -35.71993491  -11.35673909   30.09191588      7.30247471    4.49862849    3.59479490
    1   -1.97142591    6.78271219    3.83258754     23.47527048   20.21346022   -3.35685707     -0.36339328    5.13161021    6.87364596
    1   -2.17825470    5.78376756    2.71337878     16.15093222   -3.77243216  -26.43689472     -9.24853251   16.62991133   30.90107588
    8   -4.21597672    5.71926858   -6.02480580      3.47602293  -83.94322642   -5.18081847      5.70799285    9.13120460    6.34998844
    1   -3.51681113    6.24890101   -6.35383151     21.01031585   38.34147634  -11.13832108    -14.15068643  -10.65284999    5.81550191
    1   -4.83903142    6.30269501   -5.66376572    -25.99998380   46.79219762   17.29709059     18.30950675  -18.14082783  -17.17595606
    8   -0.62394714    9.43718147    7.43346177    -17.20874514   49.83978061  -29.99119819      8.86340835    4.49130904    7.88882794
    1   -0.71763226    9.30001986    8.36159246     -6.17384216  -10.24221478   37.64754402      1.42676788   -5.47733207  -21.30981166
    1   -0.14025703    8.69356296    7.13519562     19.45963714  -39.10148564   -9.21000931    -22.79195605   36.17160080    4.63587203
    8   -8.80326207    6.58550588    2.17613811     -9.76685531   17.63967426    3.97999906      6.60845911    4.85092990    6.73540164
    1   -7.91782446    6.73368945    1.79735911      3.81054838   -8.54169558   -1.56958578      0.01844608   11.63091761   -3.80711684
    1   -8.67432958    5.85199021    2.79646169      7.37106259   -8.44633663   -0.45104262     13.75234251    0.14808428   -0.43204041
    8   -3.68855952    9.23414968   -9.35763463     15.09296003  -23.00386305    6.22655942      6.56793848    6.68082775    5.42369265
    1   -4.09396419   10.06474075   -9.64160113     -6.00143292   11.22569735    8.71096641    -10.62076945    0.99549310    3.56764116
    1   -3.68638966    9.27111784   -8.37484287     -7.62115596   13.30039777  -13.11351437     -4.00536680   -3.47159604   23.86412723
    8   -8.63494588    9.78539066    9.11988283    -34.04964396   24.42637651  -17.98395596      6.48829971    3.15396149    5.36198236
    1   -9.42749208   10.02422486    8.51624511     42.74381040  -15.18782935   27.76433610     -5.97205046   12.06151564   -7.96324935
    1   -8.62540947  -10.09509569    9.76698538     -7.10774242   -7.92760405   -9.66792764      6.96760197   15.35735377   27.29837147
    8    1.15675742   -0.58898458    4.92262908    -13.07223959  -28.98446888   -5.65295652      5.76056030    3.86759252    5.40887248
    1    1.02550833    0.26548906    4.49590765     12.17526415   12.61104298   11.26446509     -1.52453869    5.86395411    3.23261120
    1    1.74644583   -0.44099209    5.69058028      1.55059604   16.62277637   -6.69193022     20.07873081    5.21652895   34.96486690
    8   -4.14288725   -8.89047378    6.77016811      2.56824810  -23.46132933    5.38174109      6.20357349    5.17182013    5.48263909
    1   -4.92001175   -9.35187143    7.15008058     -4.92201532   12.00748617   -3.29224409     15.79831428    2.25885904   -0.29407982
    1   -3.58288539   -9.67035630    6.60078423      2.48825244    9.15358570   -3.97718847     -7.14197308   12.95137767   12.12380793
    8    0.85964978   -3.56590070   -8.72970085     -3.26899781    3.71898550   -2.12572203      5.13517905    5.00809243    2.93481790
    1    1.05500049   -2.89062027   -8.02219217      7.25590584  -21.85916896   -7.80330051      2.99045774   36.95113164   25.94380334
    1    1.36325215   -4.38301804   -8.50990183     -1.04343856   18.11095897   11.06741178     20.38868862   -1.36079690   12.35927262
    8    2.38114046   -4.42286201    5.98479233      8.76652820   -2.95213094   -9.00845259      7.37237239    8.03380553    5.19950701
    1    2.94305723   -4.47128405    6.79252146    -14.77787374    3.48153440   -0.55981285     14.27131596  -14.59824460   19.23538642
    1    1.54481613   -4.01491241    6.28057846      6.82023597   -1.55762875    7.83628046     -7.28724301    3.27276214    7.50109385
    8    5.27126067    2.12844561    9.50537243    -27.10177266   13.89295072    9.46752007      5.41573579    5.27188491    4.07587541
    1    5.75730171    1.58931765    8.87588743     19.08050047   -3.36004031   -2.90704082     13.75453847   11.18281248    8.92734721
    1    5.94929128    2.58893357   10.03487350      7.32412423  -11.35117426   -4.69330313     -5.21068516   24.59426431   25.44378645
    8    9.26944658    1.85146305   -3.77782397    -76.38434123    1.71283703  -41.28142840      6.08310783    7.02667405    6.34849419
    1    8.79755013    2.02697594   -4.68146753     41.86484143   -6.41952506   42.22353530     -8.10688993    4.80542538  -11.95749577
    1    8.46504254    1.50917869   -3.28097700     32.88708965    4.47602888   -3.83088104     -1.57142086    2.33048268    1.41636508
    8   -9.50509883    8.31312326    5.94192326    -22.33632106   16.02047358  -64.84556974      6.48909522    2.15725547    6.96666493
    1   -9.84463784    9.11221108    6.38737706      8.37232114   -3.16177345   22.64500555      4.60840687   27.84328226    6.90629308
    1   -9.06097958    7.78888709    6.58344537     14.73749173  -10.22111900   40.91728473     -2.74629485   15.75361753   -3.88056014
    8   -8.12891308   -2.31776278   -8.55098382    -15.03627688   -7.47221686    7.49601097      5.15206779    5.25621123    4.97264917
    1   -7.38515806   -1.96783222   -9.10200964     -0.54498869    2.56467582   17.07962596     31.35568414    7.10998554  -16.84186025
    1   -7.98168732   -1.97269308   -7.63568893     15.46155342    4.53622873  -22.91731124     11.39817564    6.29465999   40.69521560
    8   -7.40289708    4.45023451   -3.24030784      4.22701448   25.76530782    2.89876176      2.83346119    3.70411239    4.84190093
    1   -7.95221584    4.63563513   -4.04076993      9.03547658    1.77205036   12.17861528     11.85725420   14.68094030  -14.98354467
    1   -7.03265644    5.34839869   -2.97166958    -13.26735602  -29.72774045  -13.82413393     27.24689391   34.69880046   16.89417309
    8    6.61974691   -8.23236820   -4.04620571      3.90408122   14.39973936   -6.59119685      5.65280022    6.29111985    7.14089444
    1    5.96121783   -7.70284653   -3.55095093     -2.91412380   -6.92782514    0.06859725     -2.30770838    3.68542705    2.94099518
    1    6.64509461   -9.05568155   -3.54902734     -2.27989030   -6.57163861    9.58114755     -2.82903248   10.65234578   -8.11212145
    8    3.98104217   -2.00976980   -8.45184291     14.00237650   -0.43611696    2.10543589      3.38356615    5.64490506    3.51051139
    1    3.09989021   -1.71366565   -8.13996138     10.52396577   -0.00049096    8.69445367      1.11923528    7.89109560   18.06055719
    1    4.59257030   -1.88286725   -7.67382119    -24.57784425    3.49837313   -9.64005087     34.15113619  -10.24408575   23.23253925
    8   -9.92852675   -3.56200472    6.39784980    -11.93834764   21.26453569  -34.85010175      3.20969831    5.61239400    7.83925217
    1   10.19951081   -4.19809941    6.91569202     -8.09617230  -15.51626858   12.23683060     27.91079287   13.69780083  -19.04378845
    1   -9.09319029   -3.49454656    6.85092554     18.42378255   -6.03528013   20.10012922      0.45926860    0.57663115  -14.69872683
    8   -0.45056825   -1.03877420   -3.21100581      1.85109995    7.76847201   21.58242013      6.11883437    4.73244967    2.73846318
    1   -0.25100903   -0.07454386   -3.40967898    -12.09959772  -23.09002735   23.13058583     11.46761570   45.94690190    0.25756939
    1   -0.53190672   -1.11976382   -2.20242942      2.14251186   20.34976020  -39.67062444      0.43994408    0.16802305   52.28524808
    8    0.49580945   -6.33804146   -1.50541074    -23.82909067   20.62787068   16.18131332      6.53828366    6.42963169    2.76229816
    1   -0.15921998   -6.23825530   -2.23346473      8.43364689   -4.78441854    0.04542210     14.50457905    2.82283599   20.24937357
    1   -0.00296633   -5.90703936   -0.74839529     15.56749599  -11.54414035  -19.31395943     -9.03819574    1.82227217   22.81300829
    8    3.25849894    8.38650548   -0.11123555     29.73503720   12.43060939   -8.93049173      5.39703061    2.78817066    7.82176312
    1    2.40908190    8.15669396    0.21506407    -42.30445867    2.65005249   13.88237341     45.81109415   16.35588479  -21.96261858
    1    3.63004469    7.51563007   -0.20262000     15.74572394  -16.55512553   -3.69573715    -15.33686548   43.09634381   23.08910041
    8    0.94461298    6.19831381   -1.78773650     13.82018370    6.23737487    9.49196656      3.48831596    5.62567145    3.28625633
    1    0.29096101    5.92471106   -2.40686705    -28.95315890  -12.33904928  -13.70112402     55.75343861    7.41099895   32.00383410
    1    1.69890942    6.31279737   -2.38174754     15.34725322    4.14405383    3.90494201    -12.02594608   -9.78268616   25.55535745
    8   -0.07334635   -7.43477262    5.48902022     -7.84513929   20.16432155   10.88821834      5.13675734    5.68737976    3.35661006
    1   -0.78673184   -7.56853045    4.84499200      0.97811408   -9.79770806   -6.81979938     18.80840336    2.49952930   26.85506711
    1   -0.48531628   -6.77319330    6.09695620      5.98458575   -9.59565281   -1.44761175     -2.75798507   16.51881403    8.20705824
    8    7.05149244   -7.59419181    3.30074254     -2.63250557    3.18874654    2.21095043      3.83718148    6.55132411    3.82845537
    1    6.25176284   -7.45516738    3.82577518     -3.78754789   -1.94624512   19.49535706     20.30156417  -25.97963440   -3.63424312
    1    6.65938512   -7.57890781    2.42286231      7.58925942   -2.73183211  -20.24898315     14.48111548    6.53032181   51.42780806
    8    9.22829490    1.91227486    8.93435856     14.22022371 -132.41640982  -47.30371539      5.13533012   11.37917165    9.28947457
    1    8.67135435    2.18753836    9.57530081    -49.53690559   48.52726517   63.47697880     50.18867034  -10.91202626  -45.07420536
    1    9.65027476    2.63457211    8.61944513     31.02049916   86.14033376  -18.24568270    -27.70246940  -53.76992956   18.03971902
    8    3.94044220    3.79065663   -4.02357690    -13.40735407   18.32603982  -16.56416767      6.73116940    8.54465025    7.67615621
    1    4.77750332    3.96606051   -4.50582001      2.19523087   -8.97923726    5.42462877     18.68274721  -16.35180683   -6.45163706
    1    4.20638196    3.28970558   -3.24233110     12.99487304  -10.34332830    5.20898800     -4.88399501   -6.15810389   -4.93239532
    8    6.95601353   -7.74342533   -8.60116948     13.38983856    7.27610085   10.00968366      2.77825993    4.54363329    6.26638575
    1    7.15662471   -8.21011330   -7.78013195      9.95428295   -4.09238445    8.69502125     -1.48709496   15.38699161  -15.85481057
    1    6.08049444   -8.07332717   -8.76350920    -24.35385322   -5.36521510  -15.33837015     47.99843592   19.91947547   15.14017702
    8   -4.30630726    0.83708973   10.05878430    -19.93728758   18.53201633    8.98078610      8.52113337    6.30795165    6.65784432
    1   -3.78733134    0.03878681   10.08065477     17.01669462  -27.71026780   -1.03311547    -29.53564791   17.99747731   -3.37269251
    1   -3.96745448    1.26153545    9.25910794      4.61098447    7.83764532  -11.21054367     -5.21675943  -14.60683308    5.44886209
    8    5.43066948   -1.66127284   -6.17805645     -4.48332899   -3.96261215   23.71299552      7.73322987    6.71474038    4.78608713
    1    5.41185996   -1.48169006   -5.18969705      4.88858509   -7.42724690  -27.17291744    -18.06935312    3.03872908   35.49693445
    1    5.56024848   -2.64013884   -6.20432203      2.84981221    9.64597975    2.55860876    -18.05308127   -3.27387574    0.27563016
    8    6.10507783    9.33170949    2.67556935      8.09027075   -1.07687117  -60.43515255      4.65947979    5.58080068    9.05088621
    1    5.53441533    9.07680688    3.38202919    -12.69826148   -5.05474264   36.48095661     16.80525710   12.36707668  -12.52561314
    1    6.81776138    9.83128217    3.07623616      7.05356105    7.87291129   25.37661846      0.10716072   12.65669753   -8.88470852
    8    0.76696402   -8.58518869   -6.37876400    -21.61618331   46.49227113   26.32097387      8.54131173    3.05227856    3.01404264
    1    1.69704390   -8.39738106   -6.28168906     23.80886235    0.19625663    2.81965581    -17.97381431   -0.20640942    8.95910352
    1    0.77756015   -9.34456649   -6.90843971     -0.99403469  -44.96328255  -29.87176377      8.85251542   52.91370891   32.95398834
    8   -0.40934646    5.24658049   -4.07478218     17.31801420   -8.83959005    1.60006705      1.52794347    6.07553836    3.61491156
    1   -0.72355137    6.13610072   -4.15424884     -3.82818440   31.04550092    1.88553449     13.61331206  -32.12914370    4.86997980
    1   -1.20952149    4.77678778   -4.30495270    -12.77531812  -21.48569699   -3.80839779     51.43908490   29.70382092   18.94856404
    8    5.09115391    2.96336061   -7.84887487    -17.70261240  -66.02563678   24.28529942      6.34959116    9.65583544    6.78275735
    1    5.57735013    2.06881426   -7.72364492    -15.23914974   46.70367561  -11.57535772      6.65228021  -29.09019734    3.63788835
    1    4.14272730    2.67277316   -7.62930623     35.22064795   19.13694149  -14.99420907     -8.80669703   -7.49643132   -2.57124569
    8    3.30907858    6.26068748   -3.13811884    -10.96214619   14.90176222   24.76132156      8.39718285    4.16238786    4.14095152
    1    3.55114677    5.45105613   -3.56093444      4.55374225  -33.38586964   -9.89056992    -17.87024609   42.37352397   16.78854226
    1    3.66785717    6.90054669   -3.74538873      4.53585093   20.95955844  -16.19772029    -16.76067047  -13.72119699   13.40973418
    8   -2.63290735   -2.83988017   -7.09977352      1.92137083    8.46762989    5.07667351      4.59538797    4.93477582    6.31255315
    1   -3.58432451   -3.01939771   -7.24574930      4.93678016   -0.86579967   -1.46798650     24.78926199   13.39204099    4.22937787
    1   -2.64449890   -1.91834545   -6.74970852     -3.02293376   -8.08431519   -4.66682602      9.40211008   12.81259872   18.81261505
    8   10.19194946    1.56420481    5.08309783    -73.78304477  -56.64638139   44.07876650      8.47556596    7.83000012    4.54481467
    1    9.17154937    1.46633447    5.34569565     76.51744299   21.91917329  -31.31540065    -47.39295609   -9.85105436   10.04288911
    1  -10.12901787    0.63706526    5.33104917     -2.21605791   33.46303232  -18.60465289      2.48067535  -20.92798923   -5.42468000
    8    7.72777655    9.27837490   -8.13565616    -54.79622342  -11.54259010  -84.10089308      6.71252892    6.42517901    8.26706751
    1    7.62654545   10.08461593   -7.66958894     11.08820997   29.45873580   39.26716022      2.17677030  -13.25892149  -17.78431932
    1    8.35319453    8.76083096   -7.69929905     40.72653391  -17.22565756   46.06718329    -26.39287330   22.85844082   -7.37818141
    8   -2.55722032   -3.14355531    3.44228794     15.30615523   -0.98506515   10.20570474      2.70509703    4.50306305    3.12812271
    1   -2.93013219   -2.33810797    3.91229381     26.37545426  -20.62818714   -7.63322566    -18.50062256   43.38348268   27.84441765
    1   -1.61765273   -3.27287952    3.79465786    -36.00677227   24.14768108   -2.96913817     61.11540242   -8.91486179   32.59471173
    8   -7.03357145   -9.97398494   -8.59383951      5.94635698  -72.27566063   54.92030813      3.12333988   10.94243591    3.52338391
    1   -7.55861231   -9.42209735   -9.09237214    -37.15542218   46.62117681  -42.23325831     46.76441583  -40.86233253   32.51608123
    1   -6.16368628   -9.63784575   -8.69495402     33.90955075   20.77332910  -14.77345029    -18.98397112  -16.59782415    3.42558482
    8    8.95804890    4.53842644    1.83000810     31.64725603  -21.54624480   28.37091619      3.87894045    4.14805092    4.14645142
    1    8.68335019    5.05266586    2.64469744     12.23805411  -25.21768181  -18.30323629      2.67739325   31.42949316   37.65178809
    1    9.66118807    3.85726250    2.15552857    -46.59734677   41.17154956  -12.16683199     48.64324781  -14.53708440    8.53001680
    8   -7.61646061   -3.58056652    7.80120703    -76.23165866  -26.67445701   32.46724242      9.31095513    5.00103758    4.81445354