 BEGIN_INFO
   #
   # This is a XCRYSDEN-Structure-File
   #
   # aimed for Visualization of geometry
   #
   # Launch as: xcrysden --xsf HICOLM.XSF
   #
   #
 END_INFO
 # estrutura final
CRYSTAL
PRIMVEC
      20.66266506       0.00000000       0.00000000
       0.00000000      20.66266506       0.00000000
       0.00000000       0.00000000      20.66266506
PRIMCOORD
  927    1
    8    4.55579180    2.83371291    2.13746175     24.71040119  -21.08270962   48.67228491     -1.12935927    2.45349046    2.48764064
    1    5.00073383    2.66383583    3.08893321    -28.79541539   21.48918717  -58.45645039      6.63193700    1.72131820  -13.46916871
    1    4.36511240    3.78892215    2.14967226      5.95541172    2.00718635   11.21385816     -5.50106755  -12.90320381   -2.45809232
    8    9.32536524    7.37659750    0.81916171     45.15957766    0.16413938   -2.43115880     -3.42909369   -4.35142983   -2.44934694
    1    8.72740686    6.76159804    1.21939126    -18.21178882  -11.40854975    9.85258598      0.06041424   -0.29630178   11.27593041
    1   10.21935505    6.99710867    1.12081286    -25.98116758   11.27822557   -6.97607165     -0.93769590   -5.77308889   -4.90034674
    8   10.05438876    9.94095052    7.12773758     -5.16814973   27.59711055   -4.45898595      3.32685201   -4.53007836   -0.57927035
    1   10.19069051   -9.96007241    6.49010778     -6.34754519  -21.01383545    7.04833696     -3.12462664   10.25886314   -1.75316240
    1    9.30487169   10.31825551    7.65342833      4.78610885   -5.04251208   -4.66926751    -33.73478366    5.77174366   31.94781727
    8   -1.37693430    6.60986285   -9.34717071     19.95957396  -10.27820406   28.19371822     -3.44851570   -1.36232115    2.08119803
    1   -2.01301433    6.75484558   -8.59470153     10.47493512   -1.16472093   -9.03559724     16.98543111  -11.13226340   -6.28556679
    1   -0.53162342    6.37199778   -8.83403237    -26.58785569    4.21502330  -16.24841894     21.86285860    1.35148064   -5.28131424
    8   -9.25601522   -8.95005793  -10.32187013      6.47590850   17.15735595  -14.80656788      4.21169534   -1.62785294    2.09526303
    1   -8.87143020   -8.26438944    9.71279275     -5.41450903  -18.14252193   12.28918468     -8.42198381   20.95871418    0.34402917
    1  -10.16054639   -8.57569809  -10.19776311      0.07064853   -1.97082296    3.20901587    -26.77591347   -0.52531894   24.06751391
    8    5.00715251   -1.41426022    7.03626774    -76.26199131   -7.39240424   27.74295423      5.29625635   -0.18737666    3.63747874
    1    5.61879070   -0.72424191    7.14372440     34.72570737   40.11790351    6.51566589     -7.31636078  -23.16758436    0.76275243
    1    5.51968836   -1.99810667    6.55247823     26.76047380  -42.68629122  -31.79688561     -1.16122509   -7.17902261  -16.41479742
    8    3.13199076    9.42546529    7.34672203     22.83035211  -38.67713210  -26.18067615      0.45828521    1.14838346    0.90665922
    1    2.37699335    9.64850384    6.81950000    -21.35190053    4.76933787  -23.38771038     -9.46350652  -21.19836924  -31.57159429
    1    2.98615004   10.04390528    7.99271269     -3.10314315   42.77967187   49.95443900    -26.94675567   10.86958493   10.08371644
    8    3.56437633    7.68757976   -5.36254430     -8.17664368   -8.23475059    6.37158519     -1.41239541   -2.66709268   -0.98906661
    1    3.67825158    8.61819544   -5.15210426      1.11246100   15.23375925    4.91608669     24.07642993    0.01648888    8.51101039
    1    4.33508173    7.53892165   -5.93145323      5.39049243   -3.38518316  -11.60592118     16.56890629    6.71799501    2.96531987
    8   -2.71790520   -6.07100906    9.27563731     12.28455889  -40.37980401  -10.27827484      5.66646656    0.69911337    0.16850530
    1   -2.78581396   -5.23083483    9.71118377      7.12919138   23.63536712   13.45248461    -20.77498611  -12.25362281   -2.76492276
    1   -1.87133142   -6.47306443    9.67748925    -22.07587810   12.31443288   -6.15298515    -46.71804802   16.06381996    0.53858725
    8   -2.29380989    1.72267549   -7.32700736     24.91774693  -40.28742703  -20.62883477     -1.50143748   -2.73566106    3.39363307
    1   -2.52250488    2.30273403   -6.65013218    -17.98988930   35.53582896   29.10503726     18.23633878    6.82279067  -43.48545618
    1   -2.96837906    1.84960252   -8.00582095     -9.41964824   13.90634818   -9.86917181     -0.57127877   34.87002148   -5.65228820
    8    1.70584513    4.70095897    4.37109737    -18.00278625   31.07146043  -71.16618303     -1.52106231    3.93177331    2.45836813
    1    1.67306172    5.49408054    3.69967789     11.53711891  -30.41836451   39.92603472     11.69270649   15.84555420    6.12343988
    1    1.30373301    4.09232354    3.66774155      8.04135118    7.33313082   30.46741620     -3.03397709  -27.70189782    3.85057685
    8    7.00453826   -6.08113675   -5.08402114    -16.62016388    3.48527924   15.43153476     -5.02131944    0.32042916    2.20481193
    1    7.75241488   -6.32750727   -5.61466916     15.44202398   -6.31151057   -8.90873646     22.57995963  -19.54817959   21.13366416
    1    6.69025427   -6.95156342   -4.74307737      2.23843849    0.35219631   -3.64247211     26.66501403    8.26811890    3.36811397
    8   -8.78805931    8.66481831    3.22724156    -22.81465408  -52.95700738   11.53099353      1.77517982   -1.65925072   -4.76576042
    1   -8.93483871    7.82812458    2.61590291      8.61528167   43.59959463   34.34792756      1.54978124  -11.33826673  -23.81530170
    1   -9.10787264    8.30201199    4.14155097     11.52003542   15.20206137  -42.34759015    -17.02154600  -11.90085919   82.51092653
    8   -2.04529183   -8.55245591    3.05535899      6.43500192   44.26949692   10.96718853      2.55000179   -4.34084342   -0.90566387
    1   -2.61212130   -9.09475105    2.52400300    -19.44307114  -12.06878081  -16.87820519      8.36301315   14.79969155  -11.15273446
    1   -2.41759301   -7.62410571    2.86660084      5.68623885  -30.15333421    5.82817220    -17.45899345   32.56373819   -2.36605920
    8   -1.54648423    4.08277715    6.60943743    -11.64579329   12.91667141  -10.40567745     -2.55348856    4.33873325    0.62334300
    1   -1.17116113    4.69298580    7.25050283    -10.63275082   13.73199984   15.32255222     -1.37832682   10.35828149    5.81722304
    1   -0.75525531    3.57119745    6.55697565     17.90044805  -28.40603116  -10.61139358     10.50395403  -19.15575189   14.14820231
    8    2.75873384    0.80894973    1.68404310     36.68128140   21.21989325  -49.89115019      4.69057120    1.87529586   -2.88979717
    1    3.46369988    1.57345942    1.71320324    -33.82382328  -34.58080753    6.69756725    -18.76907902  -10.14166322  -16.09449953
    1    2.76112570    0.63391065    0.67095380     -1.45085357    8.81199694   41.45742361     -8.59415793   11.49809569   50.66663986
    8    2.49883865    2.04392829   -7.55106861     37.87933964   10.64183164  -26.93208599     -1.91599126    1.65355332    2.07515733
    1    1.83564152    1.45290715   -7.34385956    -39.87124887  -40.76014789    9.89608407     14.42716825   40.74921860   10.93152260
    1    2.17475193    2.77322409   -7.04955880     -5.96714621   28.06127994   15.72236181      0.86271376    1.26710482  -24.88949531
    8    6.04696325    0.01564517   -7.67304611     35.25343489   -9.12615606  -59.68239322     -0.02187393   -2.11237148   -0.48656010
    1    6.49292885   -0.55240914   -8.42145864    -17.16948179   24.60672939   39.38882989    -14.58403813    6.89338911   37.56884114
    1    5.60780459   -0.70839480   -7.20056796     -9.83539061   -9.81861843   12.21309056      2.10659496   -1.33768058    8.91901984
    8   -0.56145189   -7.22188986  -10.31920098     90.58891915  -63.32441602    4.92486553      1.92483831   -4.85479302   -5.69108278
    1    0.41799876   -6.94536163   -9.99005260    -68.24619439  -12.71986015  -19.45122855     -8.23737935   12.83727404    4.67092279
    1   -0.35468504   -8.23214189   10.06377230    -15.51827066   72.11175555   20.64148305    -12.98882648   70.25286417    8.62671341
    8   -4.29359797   -0.07068137   -2.38246707    -22.29445590   20.88542615    6.24334342     -0.33658421    2.26331500    0.51381645
    1   -4.36203919   -0.65022808   -3.13112783      4.25545377  -14.01159831  -15.81374280     20.85784907    5.66731883  -18.34206336
    1   -3.43387015   -0.29867566   -2.02534567     18.88498432   -5.64836683    6.91289307    -28.41336999  -10.19175292  -12.58824398
    8    6.78859375   -9.36312377   -6.57642017     40.41206070  -18.63396678  -73.56623982      4.21285791    3.89490982    0.53552681
    1    6.43286353   -9.18221471   -5.75039805    -14.53104844   17.12466746   54.78814634     -9.10929335   11.78794613   34.37414649
    1    7.72234435   -8.95405127   -6.56516393    -26.39173185   -2.61714519   11.63081664     38.23094874   11.71199704   10.18294157
    8    1.68440318    4.05368567   -5.91931646    -59.39415687   32.68003774  -95.85629044     -1.38971058    0.31691428    5.31744136
    1    0.95696367    4.45920332   -5.45371242    -19.93002832    4.54193879    3.74836282     18.52274096  -12.80156677  -19.81357829
    1    2.12548429    3.81706427   -5.25286105     74.16330287  -37.65977046   93.60153729      9.46637781  -30.83870836  -10.56160280
    8    6.44954280   -0.65695900    3.01401769      3.01411647    3.05385909  -58.65511701      2.42847597    1.09249489    2.99944750
    1    6.69564599   -0.23412270    2.11396143      0.27146416   -3.44083254   43.44140879     23.82215696    5.54106083   10.71127917
    1    5.72945660   -1.22251818    2.65365568     -4.19352309    5.00671778   14.32458231    -10.06135870   -9.06940509    8.91593943
    8   -5.37759845    2.29655351    5.32308911    -15.84498298   -2.44952326    1.15574240      1.21545409    4.01065451   -0.60011021
    1   -4.97980246    2.04598929    6.18015160      1.79477777    1.83768478    1.79991348      8.95476826  -27.75714817   18.15337629
    1   -4.57350768    2.55386865    4.84532731     11.52365909   -2.30205985   -1.76371381      6.49878337    6.29812663  -28.11351834
    8    2.17499237   -5.54870565   -3.25745280     -8.51880585   21.65353831  -35.04815209      2.67440692    0.37902039    0.23937347
    1    1.87459250   -5.12063251   -4.12838597      7.64975802  -17.39704350   29.19498469    -12.02826926    1.17175236   -6.13355038
    1    1.33247369   -5.89343155   -2.88024927      2.50412873    1.75673460   -0.45006326    -21.12517221    1.81057130   -1.30435076
    8   -3.99205711    2.32699333   -9.36885968    -22.01825521  -18.41967431   88.24994188      1.33283464   -0.13729009    3.72166720
    1   -4.38276008    1.61458672   -9.85466856     -6.87873897  -18.08524718  -29.20432670    -45.26898828  -27.16377280  -25.68219623
    1   -3.52209107    2.81355704   -9.96867950     27.94078553   31.96247202  -57.44652720     40.40894638   28.30436443  -39.62151537
    8   -1.16511858    7.70576699    3.67033400    -58.72206333  -34.46181190  -23.75257395      2.81266680    2.71146536    0.75058055
    1   -0.75428654    8.45746195    3.30730127     25.20342366   31.18262730   -1.30249916     -7.89667108  -19.10077765  -19.19726482
    1   -0.67553793    7.40099172    4.39552991     32.83961659   -0.50830117   30.43487053     -3.87427183    7.19926690    0.82591298
    8   -8.72158646   -5.40494278   -2.01019097    -40.14113202   42.30885086   92.47129579      0.22547837    4.53667354   -3.47732922
    1   -8.98215548   -4.69521911   -1.21564648     24.79948884  -46.84537707  -71.39429420     -5.78992960   -1.19776429    4.06635749
    1   -9.33263164   -6.12087042   -1.64961300     17.78306823    4.90474363  -15.20181728      7.04456433   -9.60732594   -5.45514068
    8    2.76835958    6.10161810   -9.84383607    -27.83776911   13.70962665   -6.88448645     -1.96060375    5.59709560    1.23727267
    1    3.56088487    5.61963989   -9.56026114     13.36475065   -9.68233635    5.79888550      7.61222208   -2.10745515  -11.79002417
    1    2.09566718    5.87137897   -9.14921659      5.05256927   -0.87786515   -4.98385726      0.34788831  -15.47645070    0.48562489
    8   -1.58424586    8.54740846    9.51965047     29.78804935   33.90139588  -52.76632719     -2.77703099    1.14317620    0.21771434
    1   -2.31283463    8.90147584    9.98658092    -33.38475799    5.83703346   16.99239142     13.86063714   18.65552406    4.12490976
    1   -1.36090201    7.81962744   10.06281230      3.63402801  -33.51913682   26.43011104     18.61005719   11.46854183    0.43195162
    8   -3.38464503   -1.74585024   -4.55579346     16.15019061   -1.75147098   43.19534527     -3.56688900   -3.68637208    0.62976982
    1   -2.47570185   -1.36927530   -4.39003213    -10.60874785   -9.08668437   -3.81898462      9.74624089   18.48288703   -6.66793756
    1   -3.48546388   -1.51803666   -5.45590156     -4.70473808   12.71968253  -40.09499274      7.06848185   26.88917108  -26.93392424
    8   -8.73915485    3.11881556   -7.91360080      5.85376601  -37.81881359  -29.48942005      0.95265904    0.05042595   -0.05934031
    1   -7.76302477    3.00619205   -7.85052364     -2.90122396    4.85565003   -4.57128403     11.83173789    7.21196187   20.67169038
    1   -8.85477582    3.80229277   -7.29216206     -4.17107502   26.72106328   29.15142083     -0.98362961  -10.05796115  -10.95943655
    8   -2.93034500    5.62685661    3.34371851    -17.97823888  -17.71272810   -3.65932081      0.68652337   -0.65944169    1.13524652
    1   -2.41190392    6.43315366    3.48383898     15.15587234    6.76303829   -5.23091591    -19.95766839   -8.54367683   -7.87684248
    1   -2.53322736    5.20277186    2.53731892      0.75309488   12.09019216    7.20654619    -23.38867686   -1.48640170   24.81069132
    8   -4.86059211    5.52894998   -6.50252060    -12.02976250   -4.15728476    6.42062530      2.14891152   -0.22222166    0.42623475
    1   -4.19782693    6.13175460   -6.85351635     11.41805188    5.16290174   -7.69482654     -7.57234866  -15.30571219    1.10888583
    1   -5.34775373    6.14819190   -5.91647897     -2.73834322   -3.47947463   -3.97022944    -21.19836115    4.82227725    8.92245172
    8   -0.78558485    8.78462992    6.84604384     11.13213639  -42.75068287   16.23252064     -0.26448678    0.73313031    0.42813390
    1   -1.17106251    8.76505941    7.76864896      7.37884141   -5.56241592  -13.12565434      0.83691105   -9.73646197   -0.21685402
    1   -0.36874502    7.83156748    6.76267275    -22.37276906   49.61106212   -1.72851220    -10.51461817  -13.52883021  -17.42175342
    8   -9.02172132    6.36778593    1.79456510      0.55603750  -40.95032351   57.25040592      3.62724628    4.61666110    0.92265794
    1   -8.15091132    6.29540403    1.37020184      7.44089669    0.93559447   -4.07513403     -7.32743266  -16.83580628  -23.36066256
    1   -8.87184263    5.66470231    2.57429927    -13.90436475   36.93817784  -51.70310643     -9.86591064   -7.19843270   -0.13880240
    8   -4.01601128    8.91774306   -9.85236806     17.74271210    2.27363314   35.24732679     -2.84679548    2.05488194    1.54190772
    1   -4.39997117    9.76574919  -10.08508567    -13.61936187   12.40878041  -11.48234535     23.37406226  -30.62123672  -10.27818796
    1   -3.89377775    9.13849993   -8.88303337     -3.86306826  -11.97192142  -17.89146315     10.78674405   -3.43684813  -30.06982873
    8   -8.62980157    9.51486431    8.88483256     12.99273023   38.30619104   55.53722817      1.45675692   -1.69037719    0.29543015
    1   -9.30826173    9.39284013    8.23027163    -21.29698074    3.70296720  -14.31806965    -11.17165567  -17.08444107  -17.36772069
    1   -8.99031538   10.30575669    9.45559300     14.54760766  -38.03388788  -30.32607464    -29.63171385   11.38303443   18.23383639
    8    0.71508499   -1.17526486    4.66252216     23.30840597    5.94811786   26.20647202      1.22961042   -0.78571791    1.16253313
    1    0.95930612   -0.24636715    4.49179537     -7.15138600   -4.40081247   -6.70121469     11.55237816  -27.70443776   18.87752860
    1    1.26465156   -1.28489683    5.49441586    -12.63249217    0.51039981  -20.06778171    -18.80881998   11.79442891  -54.90801524
    8   -4.29466432   -9.07067935    6.34942675      5.12786595  -10.71890046   -8.58468923      0.88730833    0.09197001    0.86376918
    1   -5.08704546   -9.51539645    6.73658634      6.30210746   -1.05420546   -2.43160479     -2.26999989   14.18792278    5.94661641
    1   -3.79815226   -9.85453823    5.99758947    -10.78688774   10.91300922    9.36083858      7.08356612    6.99995905  -35.20228024
    8    0.17108925   -3.57540471   -9.03222555     -6.26760174   22.71134449    8.29625818      3.00904330   -1.96073977   -3.07397357
    1    0.22447135   -2.86836998   -8.30478486      6.83091743  -17.46361996  -21.28684377      3.54143437   27.42643875   31.44611944
    1    0.63680713   -4.30650947   -8.63031232      5.26916224   -7.48756349    6.46715774      1.49002813   23.34650638    8.59808777
    8    1.92848679   -4.92414986    5.48170852     11.58945534  -19.70884191  -52.53798092      1.91652531   -1.33448214    5.30181063
    1    2.37023059   -4.96916737    6.29822539     16.36746450    1.13221863   42.06797910      8.61581367   -0.73662618   -7.13526325
    1    1.12565438   -4.49371769    5.68111505    -29.46650655   19.55534800   18.45048985      9.96548566    1.00961090    9.82380475
    8    4.97536646    1.44326118    9.26476377    -35.65435820    0.39686885   -2.66080549     -2.68758809    0.31665568   -1.67042756
    1    5.42197494    0.64258131    9.03664975     15.05715394  -13.17229796   -8.39067603    -11.00158816  -13.16053792   20.43649375
    1    5.67135465    1.93574497    9.69545428     17.92078884   12.29404053   10.97990210      3.01535399   28.09367420   21.87098351
    8    9.03105189    1.25564279   -4.08109847    -30.11295938   14.93977986  -48.33492149     -2.67017061    3.96308473   -2.30282975
    1    8.59837167    1.40374774   -5.02854876     27.32796456  -13.72975702   45.71142960     28.36860759   -1.60234075    2.47341652
    1    8.22989142    0.86391888   -3.65911432      4.81405929   -4.57958628    4.51200647      0.48637520   19.53314948    6.62708107
    8  -10.01748483    7.81437403    5.65029458      9.65656361   25.08553415   34.65370954     -0.61287738    1.40246428   -3.89026224
    1  -10.16589962    8.57192389    6.33790561     -1.09034119  -24.08488729  -36.91969924    -10.22865450   -2.22792411    7.71820267
    1   -9.51296776    7.20521787    6.26709844     -8.63922909    4.45450223  -11.11092384      2.61757428  -13.10230008   35.00281281
    8   -8.42190400   -2.62221277   -9.33386216    -22.83282171    6.17414286   52.36070230      5.33582272    3.07985460    2.80884132
    1   -7.71879534   -2.62986185   -9.92375728     39.09795026   -0.01371439  -43.54951211     20.88895984   18.06642141    4.19480386
    1   -7.93197789   -2.14757743   -8.60342635    -18.31048960   -1.61914635   -7.95044003    -12.01352764  -15.55019666    9.48097279
    8   -7.55492683    4.36007325   -3.43248012     46.61013812   19.02199672   39.57277936     -1.44777804    4.21183025   -2.50590927
    1   -8.19505621    4.60372233   -4.04022603    -38.28765580    6.64460229  -39.76349003     27.99914307  -13.59560076   -8.32625176
    1   -7.14599524    5.26779526   -3.25333357     -7.68011264  -29.79207729   -2.02019320      0.02150247   17.81711434   11.41997158
    8    6.00130025   -8.48367437   -4.13308440     25.93155634  -13.63493413   29.68479967      1.05874557    3.44451405   -3.76110805
    1    5.28882388   -8.09796200   -3.56680369     -2.22801072   -1.13141797   -4.75898223      6.38126171   -9.81586001   -9.31638972
    1    6.42544617   -9.10361409   -3.44610324    -21.41384536   18.08201421  -26.86442853     -6.35959382   -2.58572265    4.91414200
    8    3.45354934   -2.20185417   -8.96483911    -48.50771637   32.92801965   58.84525005      4.18030336    1.10701498    3.38629987
    1    2.54797182   -1.79391128   -8.55672184     71.81966183  -33.96244230  -29.41455051     41.70221389  -26.07140518  -15.59941074
    1    4.08990877   -2.09883186   -8.17652672    -26.96581578   -1.87532616  -22.24167144     -3.45132800    5.19168119  -45.49864151
    8   10.18761604   -4.10141672    5.81303031     65.48793734   11.57790203   35.80005127      1.68227968    1.83011699    4.00035772
    1    9.67051124   -4.70886796    6.36147611     -6.21846466  -10.49850884    5.94444441      2.40824025   -0.33906623   13.12532783
    1   -9.54860605   -4.11010300    6.33471618    -59.24866042   -2.73454541  -28.91469303    -22.56313106   -9.74155959  -36.48176337
    8   -0.91450820   -0.70083469   -3.89855845    -59.44254651   -9.56392326  132.93682506     -1.73658993   -2.54018504   -1.99180514
    1   -0.74205798    0.28639637   -3.83384487      3.51982769  -16.71244324   -4.17114082     17.01846491    8.55640057  -18.04036229
    1   -1.32832778   -0.89375457   -2.86183333     54.07738545   24.75906105 -118.61742926    -10.92607321   10.93099096   10.93678184
    8   -0.03714031   -6.48709320   -2.09273626     47.90160791  -22.55128510   -8.06850379     -2.15145048    0.78659136   -1.41929404
    1   -0.52635120   -6.42235533   -2.90356332    -22.67622171    1.96961845  -19.29907620      7.35648022    2.22636748   22.76005082
    1   -0.63184005   -6.12241158   -1.47316803    -29.64119936   20.23434778   25.33688967     13.72706907    9.12463571   -3.22098471
    8    2.75344021    8.08700570   -0.28191004      1.96822999   26.80506645   -2.99567040      4.01701249    1.99398255    0.54221072
    1    1.82559720    7.83596822   -0.18132197    -14.37559508   -0.72186362    1.70625734      3.60532679    8.50041599   16.40606802
    1    3.15814377    7.24248352   -0.13471884     14.86120889  -21.86841489   -2.39911487     -5.90163297   10.25826704    4.73728762
    8    0.70353490    5.17732055   -2.32078297      7.18277801   -0.03584595  -58.42182414      1.52463665   -1.70037480   -2.55508897
    1    0.01612742    5.03259824   -3.07908586     35.68661758    5.57001829   38.02344487     -8.70895777   12.41405778   -0.22830893
    1    1.54189422    5.48300145   -2.85316102    -39.44214170   -7.36673324   31.16374332    -24.98259696   -2.06181180    7.23780602
    8   -0.44156666   -8.18892852    5.23214829      3.93576345   -1.07164069   -3.47760464      1.84308859   -3.08013310    3.38424681
    1   -1.23692250   -8.32007947    4.67933012      2.44435119   -3.96953609   -6.38687423    -33.36409530    2.59455924   -1.19826335
    1   -0.76319121   -7.53732344    5.85790469     -7.45776029   10.31817581   12.44388260      4.66047044  -11.34423892   15.34958470
    8    6.54637772   -7.96311744    3.12597783     88.73009962   -8.72343746    3.06796578     -2.38391163   -3.19135157   -3.05996962
    1    5.83013866   -7.89778344    3.65183949    -66.30472853    3.22268644   47.10122363      1.41428286   23.17981939   10.33230918
    1    6.14889121   -7.94950134    2.29977275    -22.76072441   -1.40432017  -53.16701770     -2.93150370   15.72799296   13.36475108
    8    8.89933594    1.54201292    8.52691494    -18.10716395  -32.74400232    6.01003076      5.24124563    0.34140525    0.37123156
    1    8.16003065    1.90083231    9.01248162    -20.25876444    0.80711201   12.42871912     36.85435972  -25.03878753  -11.14880243
    1    9.35242636    2.34726060    8.46915553     29.13455467   42.09807334  -16.26031766    -26.87774031    5.43920966   -8.62019344
    8    3.87203215    3.71718793   -4.02853899    -43.13646734   38.63937423   -9.80156321     -1.98074908   -2.13060403   -0.90300426
    1    4.44759112    3.75224122   -4.76384117     27.63658705   -1.09136165  -23.25073332     -3.54644794   26.94936826   39.15719341
    1    4.14950196    2.93366015   -3.61850046     18.28861477  -39.05215535   27.56601079    -15.34510721   -9.78421479   13.79502032
    8    6.29212511   -8.14098280   -8.92256074    -22.01397227  -44.61250358   24.69432318      2.33592330    2.73206633   -1.94277306
    1    6.44390022   -8.72837792   -8.11053224      6.85488045   28.12416286  -16.20686106      9.01662398   -8.93551396   35.97191751
    1    5.41334640   -8.58614750   -9.12951528     17.82348918   17.11880029  -10.11333964      0.34292486   -4.29552111   -1.30912658
    8   -4.82200319    0.44769571    9.42814394      5.30817406    6.01602276  -28.33257441      0.16962913   -2.52957163   -0.91200941
    1   -4.47356879   -0.46459143    9.31873432     -1.92121635    5.85838976   -0.28304887      4.63408264   -6.75427059  -16.25555308
    1   -4.54522553    0.86775670    8.53907769     -6.49413864   -8.55957419   34.67132572     14.74201772  -17.75215420   -0.16534652
    8    4.92646343   -1.99807231   -6.47998066     21.02087227  -56.45112304   34.96250049      1.17327905    0.51761276    2.74102586
    1    4.97456375   -1.83788136   -5.48423069     -2.78761326   -4.26264077  -28.73117347     22.29065355   -1.08503489  -53.46114020
    1    5.26338185   -2.98614693   -6.47705450    -23.83570373   50.04394982   -4.71898911      1.14292354   31.24114371    9.96420008
    8    5.76976420    8.91105998    2.30356776     17.38177506   14.64912577  -30.31547554      3.75617193   -1.41218069    2.55487492
    1    5.18271620    8.56289983    2.95632949    -15.15302888  -10.77318650   27.72279487     -3.46430547  -13.20858797   -9.73491686
    1    6.33919866    9.50797008    2.83077028     -1.53326369   -4.36595095    8.03773830     -9.13868356  -23.77483845  -21.52603473
    8    0.33376799   -8.94204741   -6.94518893    -34.95053498   15.87382183   20.40782065     -3.77283682    6.79198105    2.94677954
    1    1.27173094   -8.87990313   -6.94171471     37.24103426   10.36273168    2.42733178     -6.89706037   -6.10178262   -0.82606458
    1    0.30721889   -9.76076838   -7.41588812     -8.57042818  -25.20017531  -18.47044074    -20.21715326  -11.98344545  -17.75134044
    8   -0.76163041    4.56509830   -4.52893029     -3.07298218   14.20795971    9.01926116     -5.47240286   -2.36168790   -2.05093463
    1   -1.06949402    5.52329310   -4.52315048     -0.61043643  -18.13752087   -3.93295327     -4.27392239   -2.81269582   -3.18853880
    1   -1.63123934    4.10838201   -4.73382816      6.86380425   13.38245068   -7.35570019     42.48748081   23.57092902   10.82767626
    8    5.00674435    2.66618329   -7.91124857     44.66040684   75.73142210    6.23255607     -1.71375102   -0.80180968    1.31506503
    1    5.43973639    1.88811656   -8.08984121     24.00569995  -55.29475972   -8.92975769      8.55810645    8.28211498    5.70727037
    1    4.14890878    2.37418179   -7.78371033    -59.52035250  -22.05621239    8.13277506     11.36890989   10.62471808    6.22869011
    8    3.00907840    6.04939186   -3.33583180    -18.47875474   -8.86782279   22.39538681     -1.37359459   -3.77189205   -4.12282905
    1    3.29788940    5.16109174   -3.63943658      9.63560888   -3.91170129   -5.29527521      0.46741563   84.05343270   35.14405032
    1    3.24632909    6.61752706   -4.07338082      7.61132421   13.34341985  -16.04987814      1.06552354  -39.04326278   47.47586090
    8   -3.11898195   -3.22219606   -7.74608445     47.36333413   -6.04735242   -1.74266179     -0.38510316    1.41505185   -1.30359406
    1   -3.97623761   -3.57165886   -7.75632769    -43.69054410  -17.98679178   -4.79872943     13.65823031  -10.50649765   -2.94751170
    1   -3.33294740   -2.31504305   -7.56703794     -2.10716829   30.19794388    6.54123417     13.62542565    7.67353206   21.92418490
    8   10.15361356    0.91434189    5.27226838    -88.51150234   17.07980126   -6.62238491     -1.84457060    1.38504985   -2.30320403
    1    9.08448073    0.91797575    5.12257731     76.47949212    1.39717955    7.96092659      6.46098331   -2.28096756    2.24489996
    1   10.29494628   -0.02347434    5.30410141      3.72982568  -22.61040927   -4.83750094      9.32842468   -7.53659164   -0.97814162
    8    7.25286904    9.14404689   -8.36849972    -12.02888983   45.21239364   22.45957240     -3.28841868   -0.22251115   -7.72059416
    1    7.00931545    9.99573355   -7.82599171     13.29717360  -47.83410654  -24.45324860     -7.47220271   21.55591967    3.64700869
    1    7.91308955    8.71943677   -7.77309229     -7.57313113   -2.46854872   -1.45422855      6.02691347  -27.20356431   23.29864359
    8   -2.87783294   -3.47163190    2.76222798     33.14401116    4.98863028   26.41652929     -0.50058583   -3.20859274   -0.31441026
    1   -3.16766652   -2.69811576    3.33273308     -4.83554053   -8.92705629  -14.60270276     -9.02317561   39.08319332   -1.45184294
    1   -1.93879492   -3.51231116    3.15037842    -27.47802356   -4.15274813  -16.25530278     26.06645117   -8.61432021    0.04636733
    8   -7.56186090  -10.01816210   -8.46434400     -5.68825533   29.21024974  -73.93254161      4.93749128   -0.12905646   -1.86296949
    1   -8.25970946   -9.65457809   -9.15379316     33.42303059  -20.12424851   37.64008444     -2.31109890   -8.31405699  -26.76550326
    1   -6.71559743   -9.83494168   -9.01725789    -27.41051669   -8.41301822   28.09996053     -5.05595930   -5.24433536   -0.15448020
    8    8.67332359    3.86878968    1.71227111     -9.31648892   39.91091525  -97.17240167      3.29236021   -6.69237043    0.83948629
    1    8.30928007    4.04536228    2.49114544    -37.80262398   22.71103626   74.29116638      9.04830234    5.83996312  -27.22134759
    1    9.20794958    3.19636442    1.92484799     48.78088176  -61.23291090   19.49525644    -33.79984441   20.05444475    3.71558228
    8   -8.30332015   -4.05703843    7.31620507     83.33237355   55.93696963  -22.09754346      1.50391868    5.10744762    3.47711880