 BEGIN_INFO
   #
   # This is a XCRYSDEN-Structure-File
   #
   # aimed for Visualization of geometry
   #
   # Launch as: xcrysden --xsf HICOLM.XSF
   #
   #
 END_INFO
 # estrutura final
CRYSTAL
PRIMVEC
      20.78400715       0.00000000       0.00000000
       0.00000000      20.78400715       0.00000000
       0.00000000       0.00000000      20.78400715
PRIMCOORD
  927    1
    8   -1.41259571   -7.59840512   -5.75491760      8.88425277   42.01010601   17.67607196      1.65980697    2.74420265    1.97279116
    1   -1.38139944   -6.97741973   -6.53266404     -4.39533557  -10.11455222    7.65709863     -6.93250406   13.44532478    0.39820206
    1   -1.52502303   -8.42254353   -6.13729729     -4.55346288  -33.94672448  -22.46788126    -11.28826523   11.04342874    0.76729224
    8    0.83818891   -3.09314893    4.51719510     19.56102216  -12.58995174   14.37255735      3.39255341   -2.27143329    0.31590324
    1    0.21745942   -3.04195607    3.78480427     -8.80856772   11.07297216   -4.49918735     13.70278759   22.10721151   14.64914640
    1    1.03573281   -2.17843775    4.81459696    -15.99412544   -4.52607471   -6.67301182     15.46230669    3.83096793   -4.56401092
    8    9.72035055   -3.63819995   -9.17008153     25.38293202    6.28284848   -4.51476383     -2.18477739    5.28014435    0.75485917
    1    9.36973176   -3.52172232  -10.08367935     -4.59814246    1.32998103    7.04747097    -13.92855134    4.11679649  -14.90016539
    1  -10.10933689   -3.41228969   -9.32602464    -17.22909256   -3.87400790   10.75755552    -18.34913589    7.43428762   16.05120481
    8    2.64942610    4.60575454    2.32826879    -28.54025268  -26.09517178   15.06607060      0.23045503    0.42296404   -2.43939080
    1    2.36896661    4.00909222    1.62592354    -14.24216033  -11.28383640   -0.16632413      6.06038686    6.00785788    6.34857649
    1    3.17184381    5.11213286    1.74942099     29.20544696   42.13986690  -14.63897131      8.07563570   -4.33737448  -23.17280100
    8    4.13783241    1.99126451   -1.51430993     21.89996089    5.29235833  -23.34567257      3.43500084   -2.19608812   -3.14903667
    1    5.09245474    1.90542272   -1.25134273    -16.64673358   -0.45361599    5.43985122    -20.11946240    3.61977716   28.16049969
    1    4.26761732    2.48800580   -2.36049666     -6.85327473   -5.17035369    9.28920739      6.95982892    8.11548740   13.62563364
    8   -9.80103955   -1.72824113    8.63761059     -0.42807188   48.00990807    3.43301124      9.96019312   -5.20949308   -3.43387892
    1   -9.09616099   -1.48614071    9.28679307    -12.77118692  -20.15875058   -9.67071477     10.91407093   21.82358233    2.99602003
    1   -9.80134902   -2.67551980    8.48222085     16.95374760  -16.58895416   10.76841410      8.31922268  -28.72352933  -21.58779194
    8   -2.32019416    4.32077908  -10.36702319    -10.01151459  -46.96000303  -22.36048121     -2.41356214   -0.61196799   -4.51415480
    1   -2.20275490    5.17718162   10.05528080      5.80979498   28.76858814   -4.95820531     15.06532107   -8.31852428    0.21277877
    1   -2.32073379    3.75473187    9.58174684      3.44180702   20.72527321   31.65523430    -22.25049143   23.35306637   -1.34752491
    8    7.76115074    7.77173114   -0.43977541     45.33204199  -19.80662151  -18.81463820     -4.65573215   -1.09586052    6.54421244
    1    8.09063164    8.42215962   -1.11763468     -2.53952568   -9.42182191   18.16066810    -14.47970841   28.41644667  -14.36463653
    1    8.56053139    7.09643364   -0.44865484    -45.00548685   39.33654511    2.31996349     -2.47165680   -9.96197997   18.86394928
    8   -2.08220581    2.14541808   -7.43168674      6.71573780   35.41935746   16.42396565     -0.93194405    1.00600803    7.72088551
    1   -1.97223101    3.07377616   -7.07714368     -2.42179610  -19.48905814   -9.87252888     35.62983319  -25.98578971    0.19324950
    1   -2.90050995    1.86768262   -7.03141902    -17.03913640   -0.39570279    6.37544988    -12.79416400   39.37799251    1.17258078
    8   -8.64672892   -9.39182786    3.09585080     48.72337420   60.40639144   34.47312029      0.16493540    3.68607552   -1.06486340
    1   -8.97905661  -10.12389227    3.53899328    -27.35463755  -43.73788822   22.48870399      2.12289868   11.06719452   32.13729404
    1   -8.83509582   -9.54415657    2.23243604    -18.72277093  -13.99790524  -55.64411913    -20.41318435   -7.09203278    5.40450005
    8    4.56864261   -8.66061936    9.22793676      0.64909457  -12.90322655    2.15562765      4.71838227   -2.62269465   -0.61421209
    1    4.63431448   -9.57547505    9.50984445     -4.87609156    0.72056827   17.31125683     -0.77230232   25.13941761   -1.95264224
    1    4.96859782   -8.83454670    8.36927268      4.73043216   15.81463947  -16.53844500     15.96535224    9.75683274   16.77050287
    8   -4.54556129   -0.42613462   -6.54146239     25.18166828   23.27415184   21.86086289      4.72210994   -4.55486878   -2.21616259
    1   -5.10370640    0.34787729   -6.69306536     -1.76767138    3.52922176   -5.17568024     12.26333660  -29.53912900   -3.33326100
    1   -3.97637561   -0.01890058   -5.81812363    -10.31914756  -17.89748917  -16.28767021     15.59778798  -18.81441404   11.33448061
    8    0.06824694    8.09907672    8.55610509    -12.91003127    2.02532180    2.83060708      2.95894775   -5.18005474   -5.55203929
    1    0.73466041    8.79534440    8.55060961     13.15587946    3.45879996   -1.58614819     -8.87542430   23.54356087   22.65446562
    1    0.44888039    7.42342794    7.95472880      7.00988879   -0.91193855    2.69684411     -0.36221618   -0.65534563   -6.45604436
    8    4.40172889    3.33480010   -4.14324087    -38.68620981   71.53424567   48.46250849     -1.88631221    3.20879177   -3.38773076
    1    4.07797530    4.30950521   -3.84745292     23.29013465  -79.87542983  -14.35448059     13.63651866   30.00078665  -13.04548518
    1    4.61922347    3.48541864   -5.05065287     12.87585284    1.66954399  -24.71344586      9.88424460  -12.22319672  -29.26968359
    8    8.14856602   -7.99933558   -4.53471580      9.70458173  -32.40097889    8.25275088     -0.50778855    6.94931812   -3.26451287
    1    8.53100899   -8.89627044   -4.77745667    -10.23001663   27.89046638    0.15003340     16.81142432   12.51124182   27.73852455
    1    7.87294561   -7.63074706   -5.38344518     -0.05426550    3.25132516   -7.66612679     11.94887189    0.94778944    2.58968549
    8   -3.24508139    9.21477688   -2.11898560     -5.68664096   13.76536374    1.96912893      3.07468033    3.73455634   -0.42324864
    1   -3.43975784    9.96875923   -2.74339854      1.76470768  -11.95669281   10.56792738     14.30455015   16.33720548   -8.13091264
    1   -2.69249229    8.66570095   -2.67922292      2.30544792  -10.91247610   -5.91938174    -18.94427781   -3.68368130   16.54745529
    8   -7.38194440   -5.94579042    6.83451280    -20.26499892   10.68396366   -7.42155194      3.47617803    5.49782611    3.77924821
    1   -6.60579152   -6.20857256    7.28135311     21.46799930   -3.00984389   21.40300978      5.05852244  -35.25736305   17.81527022
    1   -7.31844781   -6.56279757    6.09552211     -5.75159910   -6.36171093  -11.60033107     -6.06491391    5.89694915    0.48424838
    8   -7.11592187   -8.22476461    5.20065403     11.42809701  -15.50842943  -11.81498485     -7.81840567    5.21289605   -4.31996916
    1   -6.27879401   -8.62563137    4.85030449    -11.02205005    8.78863137    4.50485250    -17.63207522   12.23165078  -22.93276735
    1   -7.71736279   -8.60474756    4.51801080     -3.54919068   10.02125026   11.59095226    -10.95750023    7.60751114    5.42099993
    8   -0.97613197    6.49341618    3.53727279     -8.06832622   12.53629310   84.66848965      2.53881831    0.28615419    1.02572853
    1   -1.19856184    6.21123853    2.68893275    -12.00310148  -16.64449358  -48.93603677      7.94628044  -13.67875509   30.09983952
    1   -1.69506377    6.08851297    4.11899986     19.19859698    7.66542344  -22.15181862     42.83336035  -37.41992234   -4.11086310
    8    3.98745497   -0.44328008    7.59125032     31.66712427   19.96156085    0.71795139     -0.56420470   -1.81661115   -3.81951829
    1    4.95860135   -0.45848732    7.76317916    -19.00569769    8.16972514   -3.40653495    -13.38370939   -6.94434333   18.36955096
    1    3.83142377   -1.36109871    7.76301118    -18.03609722  -23.28255252   -0.76345416     -0.51676717   -1.40956316   -9.14918380
    8    1.41004775   10.06903998    1.40181295    -69.47362410   21.81986930  -12.48670799     -1.53990576   -0.92874361    0.09113214
    1    0.65330590    9.45857587    1.60723893     17.99777184   18.69613660   -4.81842056    -13.56867358    2.60886768   -1.33512934
    1    2.09470637    9.53145928    1.65752621     48.87070843  -37.42869847   22.90113211    -10.56318315  -18.04716449  -30.28355671
    8    3.38072306    7.98414284   -1.21248710    -27.04235637   -4.99856200    1.24473916     -2.87812425   -6.05957262    2.32537077
    1    2.60940400    8.60570140   -1.26327238     18.67288854   -1.59688532    1.09606827    -21.94072240    1.63490532  -15.07056129
    1    4.02008371    8.45520505   -0.64277856      2.20929378    7.94023029   -2.80018531     10.97282612   11.90895564   -1.50530859
    8   -3.61323401   -9.69603177   -3.93275034    -11.40827181    8.16534473  -12.62454027      0.66562153    1.20791034   -1.73675457
    1   -4.55855760   -9.55751163   -4.16176062      4.91875322   -3.78217139    3.13752662      2.72306919  -10.62140006   15.87405222
    1   -3.22395198   -9.38862872   -4.75646010      4.96537725   -0.30247969    1.32086565     -2.32009895  -13.54794300  -36.94351888
    8    2.92752968    9.46110675   -8.78050156      0.99160340   15.92108645   15.93480707     -2.91389664    3.34412163   -0.64381130
    1    3.17714550    9.99069676   -7.96931146     -3.48128872  -14.58705576  -20.17050996      2.83011491    3.23396821   20.38017332
    1    2.55888825   10.14297934   -9.37545000      3.09288693   -0.87632823    3.91018026     -9.00797435   -7.12404783  -17.88033458
    8   -6.22316706    8.37868717   -6.40231973     31.36345911  -17.34594658   42.25860341      1.00005445    1.73948381    3.02732063
    1   -6.45999737    9.15920236   -6.83449824    -11.95665179   35.05848607  -21.19555195    -22.46514713    6.13855176   -2.93665759
    1   -6.70025107    7.71142872   -6.89235755     -5.16824785  -12.87835294  -10.70614990    -11.38237669  -16.32315788  -19.72864802
    8    1.34509921    6.32817859    7.15422363      0.38228361   -4.65582599   31.33912833     -2.51649837    5.21894511   -3.15032612
    1    2.30177065    6.23611705    7.40715536    -15.70324280   -7.47904211  -13.86402885      1.26392367    9.00640330  -13.62484771
    1    1.33780381    6.62201013    6.24984186     13.57224055   -1.02509613  -25.04508135      7.63116553   16.32386266   -3.54943427
    8   -6.15419644   -1.42708037   -4.28729074     -8.40520620    4.98596036   -2.46066054      0.53512117   -1.06298590   -0.35477209
    1   -6.14352565   -1.75115633   -5.21290135      4.89940513   -0.42264229    3.00750458      5.14559713    0.12594128   14.46471328
    1   -6.72180360   -0.62259555   -4.41754061      6.52750785   -6.95181104    2.41916548     -8.96391804  -15.87052734   27.29954768
    8    2.75042219    8.25062761    2.96029009    -51.56684740   -1.39845367   16.49870418      3.01946446   -0.25996074   -4.20828175
    1    2.34670864    7.73708895    3.73694256      5.64706369   17.31659650  -33.43457023     32.35368229    6.07747907    2.16373741
    1    3.64587821    8.12554736    3.22267500     36.25527205    0.73636021   -1.36285038    -22.91754758   15.59057802  -15.28966966
    8   -5.99320099   -2.58123576   -6.74697243    -29.94665595  -22.60321170    3.30077890     -3.01375679   -1.00218940    0.80100378
    1   -5.26868209   -1.96878250   -6.94350380     10.25642780    4.72709589   -4.28066134      7.16196939   20.98752252    4.97849968
    1   -5.76786481   -3.42113317   -7.19662940      9.89490356    6.36946747   -3.50432914      2.37627991   -9.89422958    7.85970956
    8   10.13618970   -6.59491078    4.22737418    -16.47104861   40.82854376  -20.52288038      1.29232383   -4.90670991    2.20279420
    1    9.93324068   -5.65041429    3.84310945     10.61165583  -52.18841952   21.82299690      7.66700482  -28.28606288  -30.81382771
    1    9.21618857   -6.93492656    4.31940706     11.16334205   -0.23794289   -2.09124650     -2.89136974   14.85436273    9.24257485
    8   -0.76081887   -7.96734214   10.03388874     38.80916588   18.78318221   10.46306567     -5.05560151    5.39840421   -6.97570861
    1   -1.52148161   -7.40425421    9.94558974    -22.57912219   -2.81182796   -2.49866461      2.97995171    3.32864559    2.28783257
    1   -1.05296773   -8.84835499    9.84986589    -17.84893736  -15.60481289   -8.26777445     25.56580643   10.48531730   19.63374542
    8   -2.76228793   -2.75422183   -8.84244904     21.45290991   13.65293332    5.20604878     -9.60081808   -0.76611002   -1.89555528
    1   -2.79828337   -2.60962707   -7.88053942     -0.91952210   -5.51409237    4.04239754    -19.80981437   14.89130041   -7.94309977
    1   -3.45643500   -3.36580198   -8.99484671    -20.21291031  -18.37690948   -1.87805816     21.63979496   -3.97091759   -4.07207213
    8    7.88440728   -3.86140237   -3.08617148      5.13899989   26.49724580  -12.25308987      2.72196115   -1.94914518   -2.86558874
    1    7.35513054   -3.56023774   -3.86677041      4.14155730   -4.52621668    8.38182525      4.94075328    5.86083172    8.95677444
    1    7.53142314   -4.73825343   -2.94678240     -7.94837291  -14.26145524    8.61575077      0.15513119    8.70367901   30.18493111
    8   -3.61156760    7.09670475   -6.14298131     55.70658971    9.37572041  -18.72105895     -3.98480253   -1.39879866   -0.42826388
    1   -4.49031875    7.40499622   -6.11947176    -37.38269263   15.01206471   -3.56255623     -1.91072434   16.96129497   -5.96606950
    1   -3.15646421    7.74481721   -6.76615905    -20.49433767  -17.38594050   11.90350787    -10.04181304   10.44444790   -9.85944277
    8    8.32609733    5.15392687   -2.97834814     13.16662688    9.82459826  -17.38834859     -0.04074628   -6.15487538   -0.16676154
    1    7.70411156    4.98330223   -2.26819504     -4.42888834    0.86996859   15.64060749     -6.89133279    8.32432456    6.36497310
    1    9.04577622    5.67485687   -2.55998190    -10.73952364   -8.37664447    5.21310280    -12.96594768  -25.67675440   -1.82011147
    8    6.71720495   -1.24261006   -0.64921079      8.21769978   30.25042932  -33.20686514     -4.41482171    0.22657045    6.41752356
    1    7.15050733   -0.63735415   -1.32654449    -17.50113768  -21.45514767   19.65944131     14.91629397    4.26791770  -11.89338736
    1    7.42995894   -1.35126090   -0.01964825      7.68084308   -8.61564195   10.81695530     -1.70959881   23.88658687    9.02192098
    8    1.24734632    2.80928591    9.99152752    -12.17770691    5.09044880   23.20511925      0.96268190   -3.70273036  -12.13839669
    1    0.38909666    2.34027813   10.06134111      2.88642491    6.10885785    5.41013589     14.86510788   -6.03739754  -11.60770307
    1    1.50081282    2.52718033    9.11703026      8.22165168  -11.39347014  -22.30232354     -5.59522408  -20.03501212   -0.81828615
    8    1.50235098    6.92218434   -4.49873768     -0.65671483   16.81650138    2.66219996     -3.76615715   -4.67649806   -1.64426017
    1    1.75565540    7.88051537   -4.47645495     -2.89553553  -11.32782885   -5.36808191     -6.15802756   26.27287409   18.58198182
    1    2.16553720    6.56891726   -3.90029197      6.39775481   -3.75484722    4.12702125     13.18811761  -20.55372809   21.26919286
    8   -3.78117288    2.81220275    5.89106815     50.20265030   25.33739069    4.20259718      0.08396930    1.39167245   -1.95739738
    1   -3.96421605    2.74145200    6.82932202    -12.31894301   -6.34842105    9.42665416    -10.90010359   31.93719561   10.45354966
    1   -4.47672051    2.37380130    5.41777247    -27.32226430  -12.06555456   -5.98386032    -15.84811185   10.86013340   -7.64292187
    8    4.62192779   -7.50493454   -6.21980252     29.85685571    0.51340744   -1.75726328     -4.25316179    2.76094182   -3.09927214
    1    5.52126737   -7.20524688   -6.55520562    -20.16640380    0.69697515   13.19960127     -8.05206295    0.03576393   23.41177736
    1    4.04920076   -7.19153996   -6.93289604     -5.22821649    5.39544561   -8.99568858      0.84100487    3.22084724   -3.36227565
    8   -5.81149488    2.16688033    4.31841775    -61.84145075   17.87659112   22.53457405      0.70956199   -2.14897113   -0.62315884
    1   -5.45223742    1.64412909    3.59923221     -5.95521380   -6.15400691  -17.84910759     13.93211334   -4.90870564   22.31800770
    1   -6.83176314    2.24857915    4.17392241     52.92410466  -15.65604492    2.05644711     -5.89803038  -29.59567074  -11.85224350
    8   -5.10991626   -8.21253096    7.54942467    -10.18697589    7.04254120  -26.46775947      0.03217084   -3.46104962   -2.31297848
    1   -5.28554836   -9.10124141    7.88325360      4.15831993   -9.53859008   16.06678321     -2.74208497   28.15355792   24.97090400
    1   -5.69445135   -8.33775500    6.77114682      6.52893288   15.77145553    7.46109362    -26.51150858   11.24023690   12.40587920
    8   -3.81742138   -0.87969396    2.44367693     -8.34255451  -21.28255668  -25.04552300      8.21707214    2.19433201    4.60400111
    1   -4.45793923   -1.12940288    3.12505424     -2.47861116    2.01631867    0.89140503     22.59468607    0.25454661    2.84595607
    1   -4.13715459   -1.46626029    1.68674033     10.97968248   15.07575765   20.55636380     13.92932323  -25.37759394    8.01028412
    8   -7.92335357    0.50483209   -4.93802326     13.73884053   -6.96428611    4.24918175      4.51525092   -3.36807681    0.71830433
    1   -8.31064522   -0.02579607   -5.64979197      0.69914634   -1.76954256   -8.24112504    -13.52982213   -3.67002854    8.21098419
    1   -8.65713178    1.02658911   -4.66132475    -17.10575898   14.62701316    5.51294942     29.15143450   16.99920614    0.82279038
    8    4.85224656   -0.51177189    1.36825686     -1.39040843  -19.53303202   -0.22620155     -4.84004863    1.19952628    3.64000128
    1    5.37256134   -0.83683108    0.59624724     -1.67080963   10.90043714    5.45185038      4.64332538   -9.38338723   -2.42804018
    1    4.39583752   -1.34867245    1.61981018      0.74663775   12.39267369   -5.56910915      3.48213980   16.82572328   -8.93113023
    8   10.20160062   -0.03264496    0.26360544    -11.65421300  -42.18480158    4.68502275     -1.59018698    5.42747481    4.76184777
    1    9.99222798    0.69327563   -0.30231143      0.00197084   33.77146165  -10.68846733     33.93938859  -13.05778544   -9.15734846
    1   -9.96731386    0.24375652    0.94308625     14.41902301   11.92144002    2.48306607     -2.59677776    0.93124282    2.87433018
    8    4.52373949    3.58496179    3.86824544     -7.94584690  -30.55361038    4.02663779     -0.86477178   -1.40692892    4.10193715
    1    4.40722321    2.58628285    3.91451884      2.07946213   29.13300732   -3.77098462      6.57209923   14.25454306  -11.98429518
    1    3.66626949    3.87368263    3.44938381     15.86682025   -2.80532314    3.23986708    -15.24274441   22.14316262  -23.80191435
    8   -9.55779986    5.74397685    7.70206272     -0.49938474   28.15376657    8.95117991     -5.25811531   -1.68082883   -5.96412897
    1   -9.73411556    6.71248568    7.84733637      1.33372731  -23.38321192    4.27811430     -3.04713302   25.88597586    7.78596548
    1   -9.77086025    5.72003391    6.76231177      1.51438161    0.94614075  -10.46388590    -16.09211029    2.81349465   18.30069727
    8   -7.13729326    2.54411619   -2.62188909      6.33836401   41.84628670   44.38843350     -0.81583470   -0.60712696   -0.66498081
    1   -7.73474073    2.23930572   -3.29551452    -14.80247777    8.54270210   -8.70724895      0.13260647    8.36116400    4.62102542
    1   -7.49320934    3.41968706   -2.21472309      8.25830273  -47.20614655  -32.08423417      5.37915234    3.78358309    1.67293032
    8    9.77410501   -1.68679948   -6.21663756     25.76017323    8.59517647  -22.57155773     -6.59670771   -0.72122419   -1.52020332
    1    9.02257748   -1.09885868   -6.24982551    -13.89134884   10.69308987    1.88318942    -30.63323158   -3.49811793    1.70199481
    1   10.36763725   -1.26688804   -6.91189817    -13.78832230  -20.48080995   24.35924786     -0.12457331    9.98306302  -13.87746270
    8   -9.59099289    6.01952092    4.99474925      3.76501452  -18.36192685  -23.32348299      2.97844325   -0.29870056   -2.47739992
    1   -9.79331506    6.00196010    4.01526238      4.67810104    5.63977249   20.32418545     23.64189309   33.46243284    2.55493213
    1   -8.70187217    5.55377898    4.95958099    -14.77924992   13.59337040   -0.74373791     19.79378688  -11.06630260    1.84608728
    8    3.05117593   -5.38442904    0.01130244     44.22287993    9.10705913    7.28072514      0.13000192    0.39387196   -0.67750038
    1    3.16569497   -5.36084420    0.99176369     -3.36769229   -6.67533839  -12.09521184     32.81209161  -17.79085909   32.81247919
    1    2.14405954   -5.46320537   -0.12390406    -38.28376856   -6.89578022    0.60588115     -3.27520966    1.59028489   -8.56521072
    8    8.95782371    9.98277847   -1.75585453    -59.65000745   -8.47894809  -50.44233599      0.41946207    2.98362534    3.42432979
    1    9.57424742   10.34594011   -1.19268652     32.64301776   30.38455103   37.96975149    -17.01194610    2.67978258    9.31375857
    1    8.34300408  -10.03948646   -1.97134159     21.28395587  -17.54564718   16.44384883      4.75496394   -6.20619350   11.42703476
    8   -6.08638586   -1.11931767   -1.59070488    -12.92925460    0.62969480   33.90190755     -1.58822654   -8.73601294   -0.28326079
    1   -6.16083000   -1.07482455   -2.52873307      1.48520345   -3.56130325  -30.92123872      6.26992764   10.48571907    7.53045441
    1   -7.00163042   -1.36523433   -1.34519960      6.93590428    5.06941341   -1.96816822     16.01689779  -34.53374405   15.73900329
    8    3.90962077   -7.28128387    5.12528716      5.97402753  -14.30541741  -32.54624786     -1.21511229   -2.38337011   -1.28968980
    1    3.87495912   -6.30723537    5.22139434     -1.09314750    1.89909061    1.53155639     -9.72418951    3.38314127   14.11797017
    1    4.00787245   -7.37928900    4.12909310     -6.78586646    2.37466620   29.68755560     10.05293370   28.58387219  -30.68791919
    8    1.70140785    1.68566271    4.68050270     -5.04674194   19.75766817    7.25625896      1.59488672    0.70765033   -4.72920284
    1    2.19713493    1.54678071    3.86033545      5.35318563   -1.03384024   -9.13896396     -1.22021530    5.68697013   10.60190827
    1    1.32650569    2.58147855    4.53188880     -0.74162899  -16.28356024    2.14777006     -0.90471682   -3.17666119  -29.89756202
    8   -4.61555833    3.29030828    8.61195229    -39.54743111   19.99514554  -31.14880994     -1.63866278    1.61179702   -7.07946029
    1   -5.37166250    3.83585159    8.17769276     33.06836467  -22.83303394   23.12444692    -16.67303750    8.94036453   -2.96456459
    1   -4.81087511    3.41245760    9.55719084      0.68752644    2.52636263    7.33448022    -13.74379304   -9.66314688   -5.36395948
    8   -1.89052619    5.42176445   -1.76998561    -36.74608362   -0.69989776   23.68160840     -1.79523315   -0.06290562   -0.60684461
    1   -2.48841715    5.02311025   -1.02873313     18.65181079   17.13772972  -42.93383227     11.83322863   13.21991929    7.60339741
    1   -2.52386080    5.85600426   -2.39711797      9.21427416  -12.49013923   17.04505443    -35.87043167    0.53665925   -6.57250733
    8   -2.41099991   -4.05724087   -0.42825405     11.83558392  -20.55966222  -15.14076107      2.16105010    4.98303742   -2.94905423
    1   -2.14278619   -4.56951286   -1.22243169     -8.16122556    0.53136843   12.31419039     28.16599071   -1.33727613  -14.80017034
    1   -2.48924293   -3.20015875   -0.86308812     -1.38668210   17.66488202   -0.05491394    -20.49839869   -0.19891386    1.31948843
    8   -0.59842551    3.57930264    7.79630392      3.02539007    0.59492299  -21.73149134     -1.90408884   -0.28201642    0.49663932
    1    0.24284304    4.08824963    7.65649020    -23.06976973   -8.74667843   -1.60507707      2.20996800   17.57481842   12.43831872
    1   -0.96782993    3.40958515    6.88750575     18.07698303    9.85696250   16.66641955     27.94363890   34.56057927   23.84181292
    8    6.74866408   -8.87503451   -1.04403002    -13.85656023  -12.38434017  -54.40212389     -1.89506821   -0.19460608    2.96965970
    1    5.78920166   -9.13139652   -1.02450605     15.34241002   11.00745538   22.39784657     -1.25423529   -7.73554638  -16.36689458
    1    7.08076823   -8.74481260   -0.16144020     -4.40431726    3.50748479   27.75784430      4.07580702  -12.38220992   19.46515344
    8    9.70708306    8.12631287    8.64206672      3.21565791  -19.48812446    3.39301603      2.26104003   -2.27735302    0.06048580
    1    9.61340202    9.09100335    8.64109210     -0.11587794   14.80842570   -1.14765644     -6.86462387  -11.82776391   13.09882239
    1    9.04672941    7.91427894    7.95750988      5.58932620   -0.83405649   -1.31512439      2.30574179  -32.02942481    8.70158381
    8    1.01971093   -0.69496543    5.79571656     18.36202402  -42.36497106   10.39873350      1.35950383    8.32683486    5.06773664
    1    1.94658098   -1.03646708    5.94972418    -25.58240945   21.90088729   -1.00204373    -14.55200127   -3.40267153  -14.96605525
    1    1.10591102    0.12007018    5.30556236     10.77266187   21.79009425   -5.01946158     11.47079126   -3.59142129    2.81769531
    8    1.74911919   -9.01477815  -10.17373954      1.84189667   -5.97284021   -6.21090874      2.74262520   -2.47569358    3.70408892
    1    1.06183883   -8.43282509   10.23545211     -2.32682884   -0.69023246   -0.63670639     24.81325870   10.70609787    3.14031439
    1    1.69607023   -8.77310423   -9.25348397     -1.71272885    5.26227535   16.80703763    -18.13014574   16.82271359    5.77685387
    8   -2.94331963    8.65303688    1.80569667    -14.83907673    3.99226099    9.06193550      0.63465345   -3.29502000   -1.30550210
    1   -2.41689665    7.85490067    1.73183617      7.72914775   -8.32602497   -8.01646092    -12.21617806   -4.05657603   -8.81381677
    1   -3.08644902    8.66208582    2.77028894      5.74769418    5.97086468   -7.75841938     19.82822408    1.94842873   11.61643454
    8   -9.61372444   -2.98116464    1.68101063    -10.05424559   -6.41812291   -4.77205019     -2.90735659   -3.46386937   -2.07212839
    1   -9.10866057   -2.22282085    1.93409625      5.69154632   21.95556995   12.07382321    -13.49009713    1.30626069   -3.94115188
    1   -9.03041783   -3.33656912    1.02922565      7.08553318  -12.37884986  -11.49929456     -0.95990152   13.04350494  -33.35564595
    8   -5.95394189    7.86635083   -3.60343482     -9.15487448   14.14077725   54.34772998     -5.71820495   -5.91052910    0.73498603
    1   -5.93648338    8.24801439   -4.46438840     -0.62498671    8.06664149  -29.89772572      6.04689234    0.45328555   -6.66264598
    1   -6.10312212    8.67445235   -3.02303481      5.80944378  -21.04316709  -21.60363750     -3.11540427   -8.52130433  -30.69186658
    8    3.70272890   -7.80358329   -3.54344040     20.06589881   -2.25266606   11.83106230      1.24667929    9.85488853    0.05395622
    1    4.15149403   -7.74845999   -4.40224043     -2.48508802    3.92923584   -8.40774509     -5.88477166   19.96026776  -21.06172056
    1    2.82750368   -8.09785693   -3.80417738    -15.03533226   -1.16990996  -11.69446964     -1.38304268  -16.69097214   37.20113922
    8    7.96106336    0.60352319   -5.98259669    -10.31498659   26.53979070   15.19577148      5.52222835   -4.00000031    5.00339146
    1    7.82971208    1.57613515   -5.72772994     16.61265573  -32.98900923   -2.93438922     26.92622110   10.39144353    3.28150960
    1    7.28280353    0.53433287   -6.67056732     -0.70969145   -1.63130104  -10.97587367      2.10461037    6.37335044    1.91871563
    8   -0.72304317    0.73352244   -0.74896594    -37.16309312  -12.73712439   -6.19448913      2.86924331   -1.42843566    8.92685510
    1   -0.23063478    0.65922019    0.05144868     20.02076248   -3.94580566   24.92263319     15.71729156    4.09672549   -1.85010990
    1   -0.10648537    1.09419441   -1.34974292     21.56577842   10.96736030  -12.84238386      6.59241532  -20.12321104    1.16523700
    8   -6.13538436   -9.27398588   -5.07894653    -12.19056604   -2.50770588   -0.76924500     -3.27013424   -0.52755027   -2.76133981
    1   -6.88073359   -9.49769979   -4.50945357      0.76183030   -1.21491582   10.32493608     12.47367508   27.72761317    3.19809445
    1   -6.55144395   -9.57692150   -5.92460490     13.94418957    4.61182997    0.76712351      7.02403973  -13.31933713   -2.00867147
    8   -3.81411134   -1.97819021    8.15540966     -2.26417936   14.85472489    1.57988416     -0.42972013    0.72204816    2.33254758
    1   -4.22917796   -1.07489549    8.23371577      7.00211485  -14.61359858    2.97579617    -31.54901018  -11.93675327  -12.63481318
    1   -2.96083113   -1.69357847    7.71708826    -12.53327518   -7.00499485    1.28600459      2.75186414   32.37134071  -23.22659205
    8   -9.59233690    3.97156379   -1.23017821    -24.04024063   28.60170515  -37.83508339      4.00337263    2.96479054    1.46404219