 BEGIN_INFO
   #
   # This is a XCRYSDEN-Structure-File
   #
   # aimed for Visualization of geometry
   #
   # Launch as: xcrysden --xsf HICOLM.XSF
   #
   #
 END_INFO
 # estrutura final
CRYSTAL
PRIMVEC
      17.11255474       0.00000000       0.00000000
       0.00000000      17.11255474       0.00000000
       0.00000000       0.00000000      17.11255474
PRIMCOORD
  927    1
    8   -0.18758778    5.59354878    4.85563261    -12.62685603    0.31141879   38.56993125      3.94836447    3.94839832    3.94849841
    1    0.54053942    5.55163331    4.25601394     24.10376179    0.67063317  -29.30675318     15.73227860   15.73130543   15.73006049
    1    0.25284476    5.42632219    5.72050263     -9.78625006    0.04552525  -13.54127027     15.73087118   15.73127946   15.73071524
    8   -7.12155749    4.58927792    8.52235882    -66.93463736   55.35884807   -1.64599507      3.94822239    3.94854233    3.94839320
    1   -7.88455965    5.22528134   -8.29989613     41.84413466  -38.98160597  -20.76492442     15.73301534   15.72965870   15.73041523
    1   -6.98653013    4.06097060   -7.78710050      3.44117700  -12.14013782   11.96299817     15.73142049   15.73077340   15.73177441
    8    8.41293912   -3.23867454    7.60630514     -7.24288533  -14.35712652   -8.14904811      3.94837855    3.94835994    3.94837618
    1   -8.09689323   -3.26347826    8.36500824      9.76868945   -0.37553265   14.19405574     15.73168329   15.73126199   15.73186708
    1    8.44297519   -2.30104892    7.34904895     -0.26325701    5.03417682   -3.71497657     15.73126665   15.73148667   15.73112330
    8    0.00231649    4.22560697    7.16795205     -0.54943604  -23.36549845  -22.27714208      3.94839607    3.94833637    3.94833922
    1   -0.42953603    3.63718359    7.80101033     -3.48083569    2.45312571   12.85216693     15.73113303   15.73137947   15.73181132
    1   -0.03792203    3.64166440    6.36369916      1.22281425   14.97848424    2.22096750     15.73132837   15.73189965   15.73136984
    8   -0.56586355   -7.01566286    7.64087897     17.53475926   -5.68785095  -12.86235439      3.94844338    3.94838262    3.94836385
    1   -0.97447320   -6.22085501    8.06695457     -0.72028346  -20.24827224    3.10094585     15.73124766   15.73043670   15.73140637
    1   -1.20105219   -7.74899923    7.73135260     -9.12906153   14.06102559    7.57912546     15.73089848   15.73186155   15.73159233
    8   -1.27883131    1.10003966    2.86027184    -63.06940322   46.11222985  -29.25812144      3.94823250    3.94851814    3.94832096
    1   -2.17200816    1.23612355    2.36327190     52.42163789    4.38596906   39.88442806     15.73345465   15.73145973   15.73293398
    1   -1.11947239    0.19281988    2.65985642     17.99380920  -39.21374691   -4.60218757     15.73202486   15.72964908   15.73108646
    8   -0.38021251    3.90877276   -4.73333302     -1.98746973  -14.17336902  -34.57374001      3.94839230    3.94836042    3.94830705
    1   -0.92011006    3.55473734   -5.53025654     27.94864494   14.51041519   32.25151795     15.73243829   15.73188020   15.73261700
    1    0.57194604    3.75433124   -4.96926213    -16.11343435   -7.37796794   -9.44806240     15.73060841   15.73097118   15.73088521
    8   -2.21777977   -3.34053180    4.14163481     -8.14278156    4.11988876   11.70923416      3.94837620    3.94840828    3.94842814
    1   -2.63903376   -2.77279225    4.85449904      8.16718125  -10.31545308  -22.28680745     15.73161675   15.73084919   15.73035204
    1   -1.70318607   -3.96478142    4.68783113      0.92989890   -3.73690904   -3.85869670     15.73131620   15.73112238   15.73111734
    8   -7.96630769    5.43128509   -5.76485422    -24.61261408   -9.00567033   17.99519090      3.94833311    3.94837394    3.94844458
    1   -7.91317899    6.39917071   -5.87270040     -0.13317747   -3.01973258    7.76832936     15.73127205   15.73115220   15.73160020
    1   -8.18491186    5.31712800   -4.78925104      8.28897603    6.96730072  -20.22127800     15.73162181   15.73156694   15.73043782
    8    6.25972609   -5.03862774   -4.99196475     -4.26625915   -5.69226121    5.00653702      3.94838634    3.94838261    3.94841060
    1    6.33679088   -5.20474092   -4.04634293     -6.13576482  -15.84273546    4.47538042     15.73102277   15.73061964   15.73146346
    1    6.76561971   -4.22788921   -5.03332983      9.75042040   14.44823750  -13.90236286     15.73168253   15.73187763   15.73070023
    8   -3.70313612    4.41918395    1.48565416     -7.96833521   17.76151872   12.10364715      3.94837666    3.94844397    3.94842917
    1   -4.29532105    4.55900925    0.74330133     -0.03038746   -3.16101662   -7.92966256     15.73127633   15.73114631   15.73094829
    1   -3.14501137    3.68096434    1.19727280      5.36526555   -7.50877233   -4.81441125     15.73150039   15.73096575   15.73107765
    8   -7.37339878    1.06370847   -1.91781926     18.28322968  -45.47501595   21.77403236      3.94844534    3.94827853    3.94845447
    1   -7.45349813    1.57483366   -2.71022026      0.10077696   10.64788144  -34.90709066     15.73128176   15.73171977   15.72982791
    1   -6.57389801    0.46152686   -2.07734480    -27.88828736   32.91095656    0.40171556     15.73011939   15.73264435   15.73129426
    8    0.08913923    7.71773181    0.53885315      2.53544705    4.20633296  -50.72077161      3.94840414    3.94840851    3.94826481
    1    0.52330484    6.87648867    0.35677897      9.08218203  -20.67917626   -5.13798626     15.73165475   15.73041880   15.73106420
    1   -0.03070514    7.65291125    1.48647888     -7.07013169    7.68255841   31.34851032     15.73098396   15.73159663   15.73257949
    8   -6.76588943    3.67014787    5.29252078      2.03498913  -22.56987787   -0.30456618      3.94840283    3.94833845    3.94839671
    1   -7.46047317    4.12499578    5.80386559      8.76039046   20.82622920   -3.77979807     15.73164139   15.73214249   15.73112061
    1   -6.07794501    4.35570271    5.06167536    -22.11786430   -4.30136622    8.21758068     15.73035905   15.73109897   15.73161885
    8   -6.25416618    3.46634532    2.34701017     -1.36357725   -2.39119036  -20.12665151      3.94839393    3.94839125    3.94834485
    1   -5.67356098    3.94275167    2.94701863     12.15564850   12.15953185    8.88998274     15.73178242   15.73178259   15.73164680
    1   -6.32225544    4.08585383    1.57050912      7.57884506   -8.61036124   18.29192659     15.73159233   15.73092000   15.73203724
    8   -1.74550048   -1.71602342   -4.21509214    -12.26002418    2.57988189    0.74696500      3.94836543    3.94840425    3.94839946
    1   -0.93155945   -1.23934087   -4.12049368     24.30478072   13.28669929   -1.71616578     15.73228697   15.73182939   15.73120632
    1   -2.19942309   -1.46845200   -3.40332656    -10.62123058    2.99113706   11.44421653     15.73083649   15.73140181   15.73175287
    8   -1.06742571    0.26275514   -7.03525771      1.48268768   11.24638674    4.61444888      3.94840138    3.94842693    3.94840957
    1   -1.40250061   -0.19312907   -7.84492290     14.67554364   -8.40345774   16.70361323     15.73188705   15.73092861   15.73197130
    1   -0.38253026   -0.33306537   -6.62472618    -18.75827975   -0.37703373  -19.65732845     15.73049857   15.73126192   15.73046123
    8    2.74976300   -8.24599332   -6.22551409     64.44537820   18.66115452   40.57216560      3.94856610    3.94844632    3.94850365
    1    2.05609337    8.46560586   -6.73505735    -28.00512047  -30.01328710   -3.84851600     15.73011457   15.73003117   15.73111777
    1    2.95996542    8.23752674   -5.48333540    -16.05779562    6.34962031  -26.28830869     15.73061071   15.73154128   15.73018585
    8    6.04220637    0.66593989    4.76271521      2.10737092  -48.69119920  -20.06725244      3.94840302    3.94827012    3.94834500
    1    6.00112984    1.04485782    3.87621752     -4.92260864   11.81228839   -2.24265602     15.73107315   15.73176814   15.73118446
    1    6.04332966   -0.32365587    4.52740242     -2.84432650   29.12947270   21.98390432     15.73115946   15.73248734   15.73219058
    8   -3.20432707   -5.27181035    0.29300045     -5.24544110  -38.91452067  -31.49834402      3.94838378    3.94829569    3.94831510
    1   -3.23578853   -5.71230575    1.15635153      0.07058398    2.53012697    2.07463315     15.73128051   15.73138265   15.73136375
    1   -3.13085104   -6.06593000   -0.33322985      0.72545239   38.10472793   20.61118864     15.73130770   15.73286008   15.73213357
    8    0.16907825   -2.04503582   -8.18892602    -23.52314317   -2.65184604  -19.84542374      3.94833596    3.94839056    3.94834558
    1    0.72553560   -2.64092275   -7.68719159     17.25481358  -14.99671092   12.04370702     15.73199417   15.73065477   15.73177776
    1   -0.09931991   -2.61097014    8.16209133      4.07487762   13.94567263    2.69743479     15.73144681   15.73185676   15.73138963
    8    4.65824148   -0.39890380    2.42805543      1.57693115   -4.67175289   19.08034974      3.94840163    3.94838528    3.94844742
    1    4.51080193   -0.08955686    1.52553202     -7.32472921   10.30058143  -16.23571034     15.73097339   15.73170535   15.73060334
    1    5.46333740   -0.91830123    2.28771388      8.02505539   -3.00574333    3.58073448     15.73161086   15.73115275   15.73142629
    8    0.47757605    7.66457620   -2.22083441     21.75801685    6.41951803   38.59607758      3.94845443    3.94841430    3.94849848
    1    0.26065728    7.40016213   -1.30502168      1.53083839    3.63451268  -12.32406813     15.73134116   15.73142852   15.73076578
    1   -0.05061270    7.05538624   -2.74127138    -16.02617988  -13.48826570  -12.74083814     15.73061205   15.73071745   15.73074848
    8   -5.49172970    5.54767848   -6.67995321      2.98175192    4.48037872  -36.76245904      3.94840530    3.94840922    3.94830133
    1   -6.28558317    5.08482477   -6.36459962     -8.62635730    0.92587418    7.26287136     15.73091935   15.73131605   15.73157920
    1   -5.07138176    4.85061633   -7.21371511      6.90960596   -6.37490058   -0.08249915     15.73156453   15.73101285   15.73127416
    8   -2.98741931   -3.79094127    7.71354637    -17.30305430  -14.49207089  -13.52161822      3.94835223    3.94835959    3.94836213
    1   -3.36401078   -4.15752267    6.84566057     13.83208501   15.42849505   29.60677327     15.73185203   15.73191833   15.73250717
    1   -2.10464255   -3.42517842    7.43471706    -13.13319001   -4.39750764   -5.42224967     15.73073219   15.73109496   15.73105239
    8    1.54050950    5.81540499    2.95755596    -17.13737409   11.66570758  -23.21990208      3.94835267    3.94842802    3.94833676
    1    2.20061679    5.40615267    3.47731346     24.08167968  -28.10952979   23.00001782     15.73227770   15.73011020   15.73223277
    1    2.04303356    6.56026065    2.61283999     -2.22719320   18.86486496   -8.98459516     15.73118511   15.73206104   15.73090445
    8    1.05668221   -3.33989302    4.83972951    -13.09464162  -39.63773567   -7.70312521      3.94836325    3.94829380    3.94837735
    1    1.10619234   -3.86479001    5.67291875      3.49273587   13.81860577    0.61178339     15.73142263   15.73185146   15.73130300
    1    1.21274299   -2.44097944    5.12037107      4.04621309   19.14221262   15.55090902     15.73144562   15.73207258   15.73192342
    8   -2.72471433    0.73276115    5.31269108      6.35318897  -11.70935335   -1.89168860      3.94841412    3.94836687    3.94839255
    1   -3.15987122    0.81629558    4.45577631      1.62239949    0.63588125  -11.70248677     15.73134498   15.73130398   15.73079161
    1   -3.44240607    0.99726396    5.90737076      0.70970927   -0.95527101    4.66853710     15.73130705   15.73123791   15.73147147
    8    1.54784522    6.44119278   -4.56592892    -15.62565088  -25.53956632  -11.63193015      3.94835662    3.94833069    3.94836707
    1    1.87520478    6.38196468   -3.67296646      6.63387922   -5.00015300   22.64648190     15.73155309   15.73106992   15.73221811
    1    1.17274082    5.53673711   -4.70037844      8.85378595   24.06390827    5.88305802     15.73164529   15.73227697   15.73152190
    8    2.71643046   -0.66856620   -3.06833452     -0.72074470  -17.40833664  -10.15999541      3.94839562    3.94835196    3.94837092
    1    2.04964181   -1.00206489   -2.42592293     10.99378489    1.28055568   -4.12858886     15.73173415   15.73133076   15.73110611
    1    2.45377449    0.25200809   -3.16772894     -1.58018442   14.28026089   -1.90571535     15.73121195   15.73187064   15.73119843
    8   -5.40767611   -0.44999651   -1.06355089     53.04576000   19.23127757   10.89183089      3.94853628    3.94844782    3.94842600
    1   -6.26409189   -0.80255130   -0.88346845    -29.60422521  -22.00707170   20.85589120     15.73004816   15.73036365   15.73214371
    1   -4.88351057   -0.69459606   -0.25561706    -17.81387229   -6.54875993  -13.51731260     15.73053779   15.73100561   15.73071624
    8    7.61213727   -3.04363385   -3.82535915    -14.09559560   16.76999876   23.89424698      3.94836063    3.94844138    3.94846001
    1    8.02700290   -2.35137556   -3.21568782    -15.21956249  -26.72668580  -17.15182287     15.73064553   15.73016766   15.73056530
    1    6.71073381   -3.23715728   -3.41914984     39.73856121   10.05199167   -9.18965403     15.73292792   15.73169504   15.73089593
    8    8.43879218    1.11266570   -5.83846865    -11.31902555   17.07381159   -7.06195174      3.94836789    3.94844217    3.94837903
    1   -8.40102050    0.21399909   -5.62874641      8.20167504   -8.19785268    6.18983683     15.73161819   15.73093714   15.73153464
    1   -8.36586331    1.67318194   -5.08128224      3.15546156  -16.84639434   -3.39095925     15.73140864   15.73057797   15.73113679
    8    7.63806011    2.81328955   -1.38647860     21.77595474  -54.74492090   22.17397007      3.94845447    3.94825428    3.94845551
    1    8.40830752    3.30970018   -1.12100633     10.19820777   28.66803326   -8.21958372     15.73170114   15.73246816   15.73093624
    1    7.89830964    1.94845615   -0.95491048    -26.39580647   22.74040063  -23.33260679     15.73018138   15.73222198   15.73030859
    8    1.51113653    0.57853703    1.84569155     14.10798408    0.60467521    2.94566988      3.94843441    3.94839908    3.94840521
    1    1.36434907    0.72520227    2.84015924     11.47260669   -1.50810408  -32.50990149     15.73175404   15.73121496   15.72992748
    1    2.23132500    1.19389323    1.59925423     -4.87510599    4.50898789   12.20476226     15.73107514   15.73146486   15.73178444
    8   -8.42624918    7.66605531   -4.13952335    -10.76648976   -3.45268820    5.67548380      3.94836933    3.94838847    3.94841235
    1    7.86195948    7.44667798   -3.63340173      0.95708737   -9.20069148  -10.28156231     15.73131734   15.73089549   15.73085059
    1   -7.94768285    8.13024383   -3.45252697     21.41370574   14.23459023    3.74238648     15.73216690   15.73186875   15.73143303
    8   -5.26513908   -3.07454882    3.67707482     35.50237837  -52.42476620  -14.63963786      3.94849038    3.94826035    3.94835920
    1   -5.96811338   -2.87851819    3.03108314     -9.42726192    8.25167176    2.96408100     15.73088609   15.73162026   15.73140070
    1   -5.27518218   -2.33565037    4.27369810    -25.00933547   31.83429964   16.72431513     15.73023895   15.73259967   15.73197215
    8   -3.62051779   -1.01894563    3.14161965    -34.20577579  -50.36468075    8.22487678      3.94830801    3.94826574    3.94841902
    1   -3.54147238   -1.32977990    4.04377028     15.86194522   15.06024028   17.30549417     15.73193632   15.73190302   15.73199629
    1   -4.25263652   -1.75055585    2.85165462     28.21342819   39.33801736  -12.88087750     15.73244929   15.73291130   15.73074265
    8    0.65875609    2.95468261    2.83670162     -1.83102237   16.21409302  -37.82029666      3.94839271    3.94843992    3.94829856
    1    0.69673458    2.96936880    1.85339928     10.59177869    5.72528094    8.65006558     15.73171746   15.73151535   15.73163683
    1   -0.07744589    2.35569911    2.96142866    -16.91154151  -18.28982994    8.51309291     15.73057528   15.73051803   15.73163113
    8   -4.46802171    2.28567699   -5.48594456    -14.28932069   -4.68443824   -4.47810412      3.94836012    3.94838525    3.94838579
    1   -3.84217401    2.80183012   -6.02643392      6.84009460   -9.59894001    0.40161423     15.73156165   15.73087895   15.73129425
    1   -4.12492455    1.34996260   -5.49894627      2.07955777   19.18131464   -3.56848991     15.73136394   15.73207418   15.73112938
    8    0.08425011   -4.04077871    2.44636760     14.51737906   19.89084325   18.23574461      3.94843548    3.94844954    3.94844521
    1    0.71323750   -3.38848258    2.04134486    -16.14723056  -11.56654839    2.87119264     15.73060701   15.73079724   15.73139682
    1    0.32552501   -3.91851181    3.40008840     -7.33543134   -0.36238347  -13.62918447     15.73097296   15.73126254   15.73071159
    8   -3.88115299   -7.87234517    0.19105237    -29.33478235    8.73470775   29.90574999      3.94832076    3.94842036    3.94847574
    1   -4.54949115   -7.69653803    0.96475785     33.05702197   -9.51538295  -36.34377874     15.73265042   15.73088241   15.72976825
    1   -3.02022998   -7.94043218    0.64635582     -1.18912922    4.33838196    4.96309919     15.73122822   15.73145775   15.73148372
    8    0.56434462    2.96912280    0.15544461     15.08407396   -5.11635437   -8.65575865      3.94843697    3.94838412    3.94837486
    1    1.18568010    2.22613411   -0.01920344     -3.41841234    9.15718207   -3.60711320     15.73113561   15.73165788   15.73112779
    1    0.13276539    3.10544644   -0.72070725      5.86432303   -8.54212001    3.80392516     15.73152113   15.73092283   15.73143558
    8   -2.16297088    8.02152066    8.14092649     27.80596054    0.74326876   -3.00030863      3.94847025    3.94839945    3.94838965
    1   -2.09630425    8.50405956   -8.11147534     -4.50316141   -3.56302841   -3.59824617     15.73109057   15.73112962   15.73112818
    1   -2.98158573    7.49728353    8.24957520     -7.35706988    0.41886968    5.84255060     15.73097207   15.73129499   15.73152021
    8    3.04954094   -2.37163327    8.38155719      2.64747846   14.74109972  -26.04157635      3.94840443    3.94843607    3.94832937
    1    3.17868761   -2.84556307   -7.91442576     -3.00850951  -16.48090003   21.25311759     15.73115265   15.73059313   15.73216022
    1    3.95658144   -2.07045020    8.21810116      0.18301136    3.53530088   -5.02157531     15.73128521   15.73142440   15.73106904
    8    4.98282818   -2.62618785   -4.11042965     -1.97014534  -36.11816385  -30.69707079      3.94839235    3.94830301    3.94831719
    1    5.21150732   -2.25307735   -3.25790321    -11.40255034   10.53880963   23.72628750     15.73080404   15.73171526   15.73226295
    1    4.18037691   -3.14411435   -3.93580800      0.51702551    1.83420673   12.46813808     15.73129908   15.73135377   15.73179537
    8    8.31521189   -0.72337495    3.53956696     10.91856898   -6.98139438   33.21918599      3.94842607    3.94837924    3.94848441
    1    7.73794653   -0.90868032    2.81193771    -19.36206850   -9.58952612  -24.99169072     15.73047351   15.73087933   15.73023972
    1    8.53675787    0.19468017    3.39006090     10.21137356   22.87541898    1.48352618     15.73170166   15.73222761   15.73133919
    8    4.02170627   -6.22487721    1.49812894     -5.95137349   -9.25607487    5.09691715      3.94838193    3.94837329    3.94841084
    1    4.51684371   -7.06395609    1.61112760      6.75392283   -3.05009890   -3.66507905     15.73155806   15.73115091   15.73112537
    1    3.54251234   -6.21357309    2.33834961     -7.27571005    8.53626347   10.80756635     15.73097542   15.73163208   15.73172642
    8    3.46581261   -7.51489543    3.88569604     -5.54904703  -31.29610959   33.29757652      3.94838298    3.94831563    3.94848462
    1    4.34443818   -7.13383979    4.08709876     -1.99354131   -5.73927591   -1.63252747     15.73119482   15.73103924   15.73120980
    1    3.25801124   -8.01565624    4.74254143      9.19751420   24.79363421  -36.87970752     15.73165955   15.73230725   15.72974599
    8   -1.72927191   -7.51388882   -6.84517268    -88.02211841    2.15766838   27.31831636      3.94816722    3.94840315    3.94846897
    1   -1.78611481   -6.99020041   -5.99293755      8.59857777  -12.31861763  -21.55691389     15.73163468   15.73076601   15.73038236
    1   -0.84510598   -7.55024843   -6.96654906     83.70162698   -3.04246428   -8.75569267     15.73475368   15.73115123   15.73091397
    8    1.61182437   -3.90047709   -6.85780507    -30.91820099  -29.31372761  -36.98648858      3.94831661    3.94832081    3.94830074
    1    1.58279866   -4.86893997   -7.16945961      4.10011885   40.95093459   19.75093584     15.73144786   15.73297828   15.73209784
    1    2.23555581   -3.91577666   -6.14023687     17.17444989   -5.97623048   18.29307254     15.73199085   15.73102939   15.73203731
    8   -3.07414671   -0.10379793    0.79720933     12.95388582  -49.77960568  -34.98650475      3.94843139    3.94826727    3.94830597
    1   -3.07444895    0.81831927    0.65768017     -6.47956840   42.86398670    6.69397268     15.73100848   15.73305772   15.73155558
    1   -3.54067002   -0.26389141    1.63436773     -1.26978105    8.39965618   15.70711480     15.73122484   15.73162642   15.73192989
    8   -7.89687970   -4.96562072   -4.71522092     40.17592864  -21.45547947   -6.24475138      3.94850261    3.94834137    3.94838116
    1   -8.13927029   -4.16664777   -4.33911826    -37.53100542   47.84995439   18.40041569     15.72971894   15.73326478   15.73204175
    1   -7.04050063   -5.08415877   -4.25394431     -3.67721345  -16.12460929   -7.96848470     15.73112489   15.73060794   15.73094667
    8   -1.10081547   -5.14161904    5.66034157     37.19847973   -0.02113606   -2.39106004      3.94849482    3.94839745    3.94839125
    1   -1.76970475   -5.79521421    5.82810951    -24.68187508  -19.61561506    9.18824835     15.73025257   15.73046298   15.73165916
    1   -0.27669749   -5.71213368    5.65389023     -9.00134015   13.25889046    1.56223851     15.73090377   15.73182821   15.73134246
    8    7.53739742   -8.18496478   -8.33195575     23.70949493   -9.00857104   16.55573170      3.94845953    3.94837394    3.94844081
    1    7.00274570   -7.42899944   -8.14358857    -21.35622406   28.57269061   -2.96228895     15.73039066   15.73246419   15.73115457
    1    7.76930490   -8.40728457   -7.41350171      5.23538769  -14.12015188    1.31634187     15.73149500   15.73069118   15.73133227
    8    7.70831142    6.01945631   -8.20609464     24.36365788   -9.34598752  -16.94649288      3.94846124    3.94837305    3.94835317
    1    7.49242908    6.45594567   -7.38978497     -8.95838155   16.10540665   15.86715116     15.73090553   15.73194644   15.73193656
    1    7.08146862    6.39361196    8.27174969     -6.58259966    4.95049113   -0.27469995     15.73100422   15.73148316   15.73126619
    8   -1.40304352    8.17805390    5.46238422     -7.67676073   -0.79971128   41.16541494      3.94837742    3.94839541    3.94850520
    1   -1.62568850    7.67497810    6.29898722     11.03562075   20.29251313  -34.36210179     15.73173588   15.73212032   15.72985054
    1   -1.95646303   -8.12142372    5.58246416      5.60774876   -9.86870631  -10.44930384     15.73151046   15.73086774   15.73084363
    8    0.48882249   -2.58600127   -2.85623553     -6.23024544   -7.45623362  -17.60135703      3.94838120    3.94837799    3.94835146
    1   -0.42158138   -3.01255475   -2.79568301     21.19829490   13.83214665    8.24285739     15.73215796   15.73185203   15.73161990
    1    0.30184194   -1.59850869   -2.83866143      1.42591811  -22.78185999    9.11141384     15.73133680   15.73033148   15.73165597
    8    1.41675248    4.56040172   -2.56003706    -11.22450344   -5.96085037   -8.55535439      3.94836814    3.94838191    3.94837512
    1    2.28189168    4.29843160   -2.14994440    -16.87327044  -12.80234620   -6.66324519     15.73057686   15.73074590   15.73100087
    1    0.90543467    3.71620882   -2.68830456     20.62435006   11.23456917   11.95251131     15.73213411   15.73174418   15.73177396
    8   -3.70615464    6.19787676   -3.06406569    -21.12671002   -3.91733218   13.36779276      3.94834223    3.94838725    3.94843248
    1   -2.79905815    6.16793898   -3.34806963     28.85911691    6.07463074   -3.91489636     15.73247610   15.73152986   15.73111499
    1   -3.92642018    5.25707568   -3.04965725     -4.76766611   -1.60470875    1.64827806     15.73107958   15.73121097   15.73134603
    8    8.27158580    4.39374551    3.58095804    -22.81757539  -21.60207666   25.34128058      3.94833781    3.94834099    3.94846380
    1    8.47780097    4.35738433    4.54256016     -2.10138777    3.55381800   -9.66029873     15.73119032   15.73142518   15.73087642
    1   -8.32218188    5.15112294    3.27392359     13.58245126   14.22817363   -4.98966024     15.73184167   15.73186849   15.73107037
    8    3.66106883   -3.50340975   -1.83575974      3.64746006  -10.89793574  -19.25088637      3.94840704    3.94836899    3.94834714
    1    2.97477742   -2.88256084   -1.58163975     -3.03567190   11.65490233    5.87807884     15.73115151   15.73176161   15.73152169
    1    3.19893944   -4.34168367   -1.81068234     -4.34254911   -7.84186480    5.08993353     15.73109726   15.73095194   15.73148896
    8   -4.97450001    7.18428218    2.37383037     -4.68557549  -44.23156206    3.96535107      3.94838524    3.94828178    3.94840788
    1   -4.03179916    6.93571769    2.23251182    -12.54726324   17.50882179    0.70787462     15.73075651   15.73200472   15.73130697
    1   -5.00636739    8.13043599    2.38783337     15.29319744   25.44490662   -2.17230067     15.73191271   15.73233432   15.73118736
    8   -3.03182791   -6.87681518    5.72119580     -5.77778837   -5.38868243   40.10972502      3.94838239    3.94838341    3.94850244
    1   -3.19703487   -6.90238732    6.72576228     11.12417870    8.65571178  -41.82272306     15.73173956   15.73163705   15.72954072
    1   -3.68350482   -6.20125104    5.40541515      9.96735173   -0.84493549   11.67068110     15.73169152   15.73124248   15.73176226
    8    5.29913152   -5.22889172    4.02429362      8.02727375   18.32865044   39.91195115      3.94841850    3.94844545    3.94850192
    1    5.71836398   -4.70257086    4.78392419    -20.08176513  -18.44285557  -31.55166690     15.73044361   15.73051168   15.72996729
    1    4.37180806   -5.24555416    4.29094876     -8.79106073   -3.99199122    0.97941856     15.73091251   15.73111180   15.73131825
    8    2.38325198    2.01750782   -3.30813804     27.57790541   38.37339181  -25.70377366      3.94846965    3.94849789    3.94833026
    1    3.08826571    2.72943916   -3.50956822    -30.31434871  -36.09325863   13.85224887     15.73001866   15.72977867   15.73185286
    1    2.43257822    1.91320465   -2.34267031      3.79736497   -3.76791186   10.43227309     15.73143529   15.73112111   15.73171085
    8    3.59291810   -5.69603018   -6.02069337    -16.18409981  -44.76183267    1.98253507      3.94835516    3.94828040    3.94840269
    1    3.88510240   -5.50466765   -5.10606613      5.98616970   -5.59270547    4.89816040     15.73152619   15.73104532   15.73148103
    1    3.24302758   -6.64846835   -5.92651062     18.08345134   37.72093702   -8.34179364     15.73202859   15.73284414   15.73093115
    8   -1.01069444   -2.79297715    6.60806047     23.33390817   20.58180109   -1.00572824      3.94845855    3.94845135    3.94839487
    1   -0.75212226   -2.21851899    5.83237737     -6.68299002    8.95655303   16.87445331     15.73100004   15.73164954   15.73197837
    1   -0.69858514   -3.64649720    6.26830595     -2.69981471  -16.76351254    6.06255624     15.73116545   15.73058142   15.73152937
    8    2.32370023    8.19706164    2.05032697     43.03261057  -65.59791710   36.63034997      3.94851008    3.94822589    3.94849333
    1    2.80804923   -8.40670437    2.74500833     -2.10999654    0.64841150    0.07350662     15.73118997   15.73130454   15.73128066
    1    1.94604609   -8.25719239    1.55705634    -31.23107605   54.34769389  -27.78794938     15.72998057   15.73353461   15.73012357
    8   -3.13554432   -4.81064963   -6.73685545     11.92625002   72.44915069   17.74795190      3.94842870    3.94858704    3.94844393
    1   -2.68645738   -4.56760805   -5.87050236    -17.50279086  -23.46745741  -20.66189731     15.73055071   15.73030301   15.73041953
    1   -3.27125434   -3.88974358   -7.11572913      1.46991883  -34.15572154    6.97734756     15.73133863   15.72985912   15.73156735
    8    8.47393037    5.21201752    6.19234086     -2.05858676  -11.72977848  -34.32676831      3.94839212    3.94836681    3.94830770
    1    7.96028465    4.58912898    6.72431047    -15.37319698   -6.37402945    7.87827781     15.73063915   15.73101288   15.73160476
    1   -8.20630296    5.71191188    6.84189053     24.78974978   27.23778596   33.66517199     15.73230710   15.73240877   15.73267571
    8    1.30336227   -5.00971714   -1.88755278      6.30750973   33.81022453  -85.68301488      3.94841401    3.94848596    3.94817334
    1    1.06432290   -4.07735953   -2.23967354      5.06880684  -40.67852105   41.51198662     15.73148808   15.72958823   15.73300156
    1    1.40877103   -4.94842469   -0.96313651     -5.04738037   26.20352799   51.03468111     15.73106796   15.73236581   15.73339705
    8    7.15848615   -3.83970358    2.91263300     56.20361587   29.73009396   31.74425451      3.94854454    3.94847528    3.94848055