 BEGIN_INFO
   #
   # This is a XCRYSDEN-Structure-File
   #
   # aimed for Visualization of geometry
   #
   # Launch as: xcrysden --xsf HICOLM.XSF
   #
   #
 END_INFO
 # estrutura final
CRYSTAL
PRIMVEC
      21.00000000       0.00000000       0.00000000
       0.00000000      21.00000000       0.00000000
       0.00000000       0.00000000      21.00000000
PRIMCOORD
  927    1
    8    2.45874691   -8.82131717   -8.69610702  -2863.48277831-8980.47269032 2791.63327883      3.87338780    3.71316456    4.02151236
    1    2.53979030   -9.63849463   -9.17997225   2716.63059782 3049.38189177-4722.20438090     16.86083482   16.99917126   13.76781838
    1    2.03714776   -9.07712904   -7.88043987    144.52647806 5924.78736531 1930.53167756     15.79136414   18.19475864   16.53400096
    8   -4.00712910   -9.71815517   -6.79096506  -3938.75995492-9029.93294878 -286.32092907      3.84517718    3.71176389    3.94088784
    1   -3.56087113   10.44410335   -6.70415013   5452.04092640 2974.76173398  676.30485195     17.99922979   16.96869186   16.01261531
    1   -4.92213658   -9.95578701   -6.91244835  -1514.98345863 6046.28205834 -385.42820778     15.10104321   18.24639851   15.57094602
    8   -5.33134794   -2.94920303   10.13510588   8164.45969485 1861.30392069-5185.80773332      4.16192407    3.99707156    3.81276219
    1   -4.51664377   -2.56198617   10.44309593  -2398.15310819  487.80536926 5758.10608752     14.73563645   15.93379788   18.12185038
    1   -5.17326047   -3.11325576    9.20959661  -5768.99218371-2344.62493041 -575.48091667     13.33618979   14.75787364   15.49236334
    8    2.08252787    5.98056985   -6.87420406  -6013.20302933-7756.69701707 -260.79030836      3.79080132    3.74511036    3.94155713
    1    2.31488299    5.05623805   -6.88448824   6039.47044928 1511.32830876  147.24284588     18.24381426   16.35999022   15.79253555
    1    1.12957873    5.97902903   -6.89318225    -20.41874563 6233.18585975  101.86377189     15.72275689   18.32439056   15.77365745
    8    5.76024202   -0.69744403   -5.89752425   5410.56997338 1824.41060300**************      4.08994841    3.99603255    3.56079079
    1    5.19568523    0.00044693   -5.57700236  -2406.14176884-3873.48705364 4390.62863497     14.73239335   14.12322817   17.55403099
    1    6.24829336   -0.29111339   -6.60829948   3024.19342477-5380.27045553 -998.73232025     16.98674912   13.49770057   15.31667462
    8    2.88755986    5.24825796    7.50489804  -6616.42553951  893.06754994 7240.20686133      3.77528371    3.97175706    4.13781892
    1    2.17239008    4.65697595    7.72259775   1662.37610578-3755.14655025-4717.93837540     16.42168982   14.17170695   13.77184804
    1    2.81423176    5.94615033    8.14995221   4956.33514332 2862.03679228-2524.10583993     17.78972811   16.91992720   14.68297518
    8    4.17554203    8.76438094   -3.53399195   6248.25412323 -857.41109169 7612.50004494      4.11166528    3.92598531    4.14731551
    1    4.14991266    9.22443436   -2.69959165  -5166.39675702 3046.35283413-1829.41018228     13.58824376   16.99490961   14.97241099
    1    4.94415651    8.20490328   -3.46529246  -1084.42740580-2196.72550082-5770.24070195     15.28143809   14.82008994   13.33776276
    8    6.60270472   -0.00022444    9.16271973  ******************************************     73.48825224    3.16775155   25.50812204
    1    7.08444411    0.23865381    8.37573306  -2976.75706788-4423.83462136-3242.62178787     14.49306704   13.89125700   14.38254964
    1    6.93140894    0.60064519    9.82559762  -3797.90804659-2579.32827593 4250.72290657     14.15154085   14.65846446   17.49928257
    8   -5.36916610   -9.30847698   -2.42398815  -3391.33628335 5137.68932075-7674.46608178      3.85959110    4.08291758    3.74744066
    1   -4.91723422   -9.09814190   -3.23640185   5055.70664695-3053.95401318 2016.06293761     17.83269945   14.46190462   16.56924917
    1   -6.22717761   -8.90627470   -2.52661209  -1657.89275377-2076.96628193 5655.71562499     15.04216418   14.86799654   18.08208377
    8   -9.75849317   -0.40779212   -1.44186308  -9191.81296529-5098.87818679-2380.67337233      3.70750303    3.81477897    3.88597392
    1   -9.96292108   -1.33872153   -1.43439780   5690.98261647-1234.26752337 2234.78058738     18.09918766   15.21768816   16.66113245
    1   10.44699529    0.00012390   -1.77478017   2668.96924285 5616.91432760  494.71675748     16.84176403   18.06839053   15.93710991
    8    0.55823761   -9.00791243    6.27648924  ******************************************  47743.0674079123957.9155571919747.55042628
    1    0.38261599   -9.89258512    6.62491672   6980.73921860-1319.67321140 -162.35079589     15.21084737   15.85100038   15.70794885
    1    1.47654566   -8.96634957    6.17550545    606.61429236-6952.85659200 2543.48801149     15.67758581   16.20763115   15.52982528
    8   -4.45222961    7.83422650    0.42512014  ****************************90855.45554344     -3.17554953    3.05761420    6.32536532
    1   -4.64181200    7.00261051   -0.00024941   6114.36118728-1043.39031371 -666.03042900     18.27603960   15.29697649   15.45406175
    1   -5.31256471    8.19181278    0.62620926   2682.45064640 5023.83656114 2526.08505908     16.84767178   17.82219301   16.78264363
    8    2.42189093   -5.76575301    4.23109783  -1445.19536463 3135.91565185-9201.76186629      3.91054271    4.03051642    3.70740730
    1    1.71206522   -5.22157321    3.90169692  -2461.31915509  268.80666426 5731.25890809     14.70803853   15.84304604   18.11390078
    1    2.95641455   -5.93852598    3.46108445   3913.88740354-3398.31348001 3473.78985776     17.35839272   14.31851896   17.17540660
    8   -4.14014515    8.79595002   -9.41152709  -7247.77626264 5833.27798459-3159.37781769      3.75864055    4.10110900    3.86567698
    1   -4.86646883    9.15484614   -8.90938020   2121.50256611-2862.40306835 5120.22971320     16.61295101   14.54169896   17.85920671
    1   -4.27933920    9.13363111  -10.29191168   5125.52645347-2967.59053842-1967.67793681     17.86140073   14.49798455   14.91352504
    8   -1.36387699   -9.02411094    8.89324993   4836.22837358 8467.24905350-1113.58532857      4.07477461    4.16966562    3.91929102
    1   -0.43273709   -8.89558755    8.73518874    875.07630660-6187.50282021   58.88139506     16.09427020   13.16448339   15.75567123
    1   -1.71728446   -8.13933175    8.92114194  -5733.31843734-2303.74198348 1024.01145886     13.35291511   14.77558975   16.15606847
    8    4.19173694    3.42529389   -2.80645394   -726.81287369-4802.92328689 8569.46826846      3.92937866    3.82275180    4.17255995
    1    3.73926437    2.60534466   -2.62917851  -1742.02843248 -341.69589900-5993.68193567     15.00790851   15.58939208   13.24242349
    1    4.55791924    3.67378480   -1.96224180   2458.18541936 5140.46516737-2573.63517177     16.75203227   17.86584316   14.66257735
    8    3.04608400    3.39416783   -8.94958405   4082.10867878-8950.21614952  338.09050186      4.05526241    3.71407198    3.95724254
    1    3.77265582    3.10055792   -8.40698775    426.96364576 5705.29253452 2517.34096282     15.90872739   18.10232752   16.77746114
    1    2.80745479    2.62109341   -9.45344186  -4516.65636953 3243.95931188-2847.12307600     13.85421115   17.07941518   14.54804418
    8    8.54550091   -6.09830993   -4.57683405  -2861.94651736 9447.04765431  355.50991049      3.87355664    4.19541414    3.95768704
    1    7.65732126   -5.75430948   -4.54092129  -2267.77959099-5835.69210350  -97.45079356     14.78999357   13.30903493   15.69083189
    1    9.09483879   -5.31938202   -4.57168932   5117.70696950-3603.17668114 -259.73102639     17.85549967   14.23568182   15.62347286
    8   -9.31859612    5.10326796   10.32804306  -4944.03726588  630.35906185 8516.63103673      3.81907604    3.96487859    4.17115068
    1  -10.25877145    5.19323872   10.45634344   -855.00114179  -40.81364357-6199.96117321     15.37629054   15.71433572   13.15708073
    1   -8.96564207    5.08641161   -9.78670875   5791.85530779 -589.99199385-2313.83900095     18.13603567   15.48631917   14.77057315
    8    0.07975508   -2.79818471    7.94996078  10032.1368708026272.56080776**************      4.21062822    4.63553899    3.60841884
    1    1.01621749   -2.96614154    8.00782693  -1165.13380512-6108.41289885  980.28515912     15.24793431   13.19742792   16.13791924
    1    0.02310843   -1.85985135    7.79237170  -6254.85296008 -409.35083497 -130.32712606     13.13669031   15.56144578   15.67722757
    8    8.65992603   -0.01051795   -6.23967306   5953.65103326 7874.81843549 -651.49602177      4.10396048    4.15416445    3.93136265
    1    9.60914274   -0.00390457   -6.32607928     53.96163513-6253.94947468  -32.31788793     15.75364219   13.13721459   15.71788076
    1    8.42433048    0.91270241   -6.21375616  -6048.70818159-1538.34600178  541.82239359     13.22234607   15.09317422   15.95602331
    8    7.26057504    7.23369001    4.46992201   7163.95863029 5030.13932082 4589.12608302      4.13551902    4.07978189    4.06826308
    1    7.31775060    8.17445089    4.61214612  -5471.46484415  788.90953697-2956.29161862     13.46261485   16.05836120   14.50548815
    1    8.05450238    6.89119853    4.87104040  -1682.08333235-5812.75775737-1621.36350593     15.03380374   13.32111733   15.05899108
    8    3.73987597    9.49197332    0.19320811   2024.4707940828702.5560765812116.62568139      4.00098645    4.69923041    4.26537649
    1    3.01734158   10.08273170   -0.00028843   4064.56482675 4644.07204100 -770.80957428     17.42174006   17.66284571   15.41069147
    1    3.31567589    8.65367217    0.35375693   5561.14104417-2680.21328549  932.92312652     18.04420702   14.61656283   16.11936696
    8   -0.64381505    8.58773900   -1.71090091   -227.18490702 4333.4365444510699.86726408      3.94218410    4.06152517    4.22810318
    1    0.00071237    8.30959349   -1.06611845  -1724.17381722-5984.82329327 -869.18547651     15.01637762   13.24983942   15.37085790
    1   -0.54497621    9.53526080   -1.74178917  -4523.04916798  321.80930074-4346.04445551     13.85592653   15.86466695   13.92929811
    8    3.47545493   -0.00122604   10.25697518  ******************************************     81.72860089  161.59416452 -945.31616312
    1    4.23453972    0.54164631   10.45102795    -45.31340042-1924.73010524 5551.25649916     15.71197535   14.89567883   18.14416802
    1    3.29990974    0.16781992    9.33600176  -4508.38080094-3688.34875336  135.65116918     13.77159792   14.12857399   15.79122706
    8    3.62753096   -9.57616901    9.09034783    973.16975553 2815.58949566-9388.52140657      3.97387238    4.02211272    3.70256805
    1    4.40727440   -9.24006338    8.65727684   3204.36018000 -534.50108898 5341.70320070     17.06313786   15.50912619   17.95148243
    1    2.96576086   -9.57867874    8.40440457  -4184.34826167-2266.23037078 4042.45972958     13.99210850   14.78934379   17.41146974
    8    5.57795134    0.01403433    8.84329413  **************28954.38851657**************    -65.26451416    4.70689939  -17.67987422
    1    5.33688148   -0.90548894    8.77389170  -6046.02244662 1605.14159210 -171.19145927     13.22577614   16.39651836   15.66038048
    1    6.52999981    0.00006402    8.88794011    362.07009086 6206.43919723 1806.12801825     15.88156935   18.30333956   16.48106375
    8   -1.24028000    4.17234886   -6.95116712   4259.29285041-6759.93966875-5402.11882356      4.05994668    3.77135207    3.80692579
    1   -0.30416705    4.08529381   -7.10810658   1036.99506612 5186.38436175 3327.20899495     16.16239425   17.88736160   17.11445208
    1   -1.62033945    3.42373611   -7.40237989  -5701.15944155 1805.68443469 1807.53642347     13.36119480   16.48192001   16.48269147
    8    5.40350703   -8.57770408   -2.83488095   6098.11862728-2017.23660995 7487.48747525      4.10776712    3.89567083    4.14407822
    1    5.90509925   -7.96527728   -2.30395795  -2329.71804894 4782.27923514-3302.61794474     14.76474168   17.71527811   14.36111869
    1    5.62634695   -9.43149084   -2.47449214  -3765.59910862-2758.61760697-4184.12520636     14.16905018   14.58683424   13.99541663
    8   -9.16915825    2.26617992   -0.00324593  **************************** 9460.52917672     15.54652821   37.89889951    4.19596368
    1   -9.88114604    1.63249358    0.00052072  -3723.73210781 4098.06371250  -33.42189861     14.18624077   17.43158893   15.71740788
    1   -8.38204144    1.72863184   -0.00224228   4017.28279729 5363.50302424  -55.33297539     17.39842272   17.95695235   15.70831169
    8   -2.46063601    5.57451095    0.87161407   2997.06072436  383.09491244 9581.51926316      4.02666019    3.95840863    4.19878136
    1   -1.56169004    5.33927446    1.08393848   1103.69247877-1308.71174600-6047.22822819     16.18906591   15.18846518   13.22295586
    1   -2.83677441    5.82800798    1.70992915  -5483.11718870 1194.84501074-2812.38844472     13.45696545   16.22688828   14.56471514
    8   -5.62301396    0.45409565    0.05042204   7032.25861150************** 7164.74934412      4.13236913    3.35562899    4.13583513
    1   -4.75894996    0.05403550    0.00735174   1486.85643059 3720.29419436-4786.68082728     16.34876360   17.27630605   13.74339530
    1   -6.05172434   -0.00000055    0.77048855  -5142.42972782 3438.51405825 -852.69922058     13.59565422   17.15928262   15.37715964
    8   -7.55552401    2.59580306   -4.02671099   3120.01399442 8237.87699119 4532.22972144      4.02989734    4.16359289    4.06678846
    1   -6.74408792    3.07474487   -4.17063918   1677.49003922-4163.74470760-4388.01251509     16.42686991   14.00464672   13.91167116
    1   -7.99921926    3.09338889   -3.34549430  -4781.50096409-4069.97746902 -140.97685782     13.74850911   14.04352917   15.67279810
    8   -7.03398211    3.68904192    6.09198984  -4337.91888962-2489.60363171-8467.33581763      3.83469008    3.88313690    3.72645711
    1   -7.88064844    3.97636945    5.76171880   -822.71042208 3468.51145148 5120.83350394     15.38894373   17.17445099   17.86190675
    1   -6.70787519    3.10475652    5.41321142   5171.95058252 -991.74420144 3328.86482260     17.88321015   15.31862579   17.11631025
    8    4.92320100    7.56474486    6.95757087   3689.91572652-6753.31580145-6106.70632092      4.04504267    3.77149812    3.78843556
    1    5.01611021    7.61761992    6.01044175  -2493.11643181 5715.28507036   68.64076992     14.69465083   18.10768491   15.75979976
    1    5.27086648    6.70449495    7.17571699  -1192.37932261 1038.32716963 6036.86688777     15.23550121   16.16299963   18.24139882
    8   -6.04683098   -9.34052513    0.40370288   5830.75793271-5651.87519606-5520.41509673      4.10105618    3.80040998    3.80385164
    1   -5.21153336   -9.11089808    0.00612923   -423.74019291 5734.34749492 2412.30113969     15.55517326   18.11462552   16.73389354
    1   -6.18590739  -10.24619629    0.14124938  -5412.25850255  -81.74663275 3107.03275105     13.48180659   15.69728985   17.02263725
    8   -4.28377160    0.23557860    6.04162442  34206.7354749949835.45242872**************      4.84321841    5.25210854    2.89608552
    1   -3.45585148    0.00016448    5.63219403   -997.49117103-6021.63583417 1430.56265758     15.31724955   13.23192846   16.32506029
    1   -4.33644641    1.18054074    5.92855234  -5524.12986427   61.52525668 2952.53585244     13.43842351   15.75680520   16.95677046
    8   -0.78661304    0.70227282    5.55926093    958.30322716-9654.93295605-1328.50364452      3.97349664    3.69547254    3.91359152
    1   -0.86055852    0.20762083    4.74789109  -1205.27069259 5276.26697519-3106.90578802     15.23009029   17.92531021   14.43930340
    1   -0.59042723    0.03997465    6.21604965    186.45339778 4422.28708710 4417.65951601     15.80881607   17.57019620   17.56829619
    8    3.40312598    8.71180486    9.68998186   2714.36068507-6593.54301263-6775.71457615      4.01950140    3.77565766    3.77088413
    1    3.94278485    7.93515501    9.80864899    564.85856968 1321.45476739 6068.23524578     15.96619543   16.28080141   18.25483743
    1    3.18980205    8.70464982    8.76105188  -3289.31314281 5256.25425203  708.58001577     14.36337036   17.91715583   16.02592679
    8   -0.80510903    5.23883982    0.00020794   1779.79167201************** -712.64249350      3.99496604    3.68294195    3.92974701
    1   -1.53385911    4.62451673   -0.00025127  -4046.94630441 4779.66001099  -11.38495252     14.04851096   17.71869047   15.72655322
    1   -0.03271151    4.68035778    0.00061973   3658.76066093 5053.69787966    5.35523476     17.25264811   17.83265099   15.73350760
    8    5.31213196   -0.00752905    5.62235408    838.90401394  154.36986548 9873.37660155      3.97031887    3.95242641    4.20645675
    1    4.61172885   -0.00253929    6.26881378  -4255.80375961  -91.17503405-4590.52261766     13.96554861   15.69344858   13.82665238
    1    6.10883545    0.00290672    6.14550064   3450.90659992  -63.98237786-5239.46116146     17.16305582   15.70473047   13.55739830
    8   -1.03017717   -6.31126602    4.66146392  -9397.96399804 2288.98764463-1964.18960577      3.70223090    4.00834823    3.89694335
    1   -1.49753120   -5.51221680    4.88865230   5154.30778168 2241.73090488 2730.98706527     17.87438122   16.66337927   16.86679937
    1   -1.68037039   -6.83633221    4.20319357   4217.28530615-4535.48149991 -786.36052980     17.48477238   13.84546240   15.40431326
    8    3.92999707   -8.99376300    4.52051596   9098.34300678 3764.72459801  586.49979051      4.18613019    4.04676348    3.96371748
    1    4.76173710   -9.45286639    4.44343855  -3056.46935349-5403.11284065 -861.15081192     14.46348745   13.49016942   15.37408954
    1    4.18049748   -8.08568593    4.66601679  -6049.11031411 1635.21130882  284.17592546     13.22220313   16.40951566   15.84914251
    8   -0.42920812   -2.84702694   -7.69368105  -5247.04365506 8792.46394284  491.16066459      3.81115194    4.17834849    3.96123971
    1    0.00004389   -1.99620285   -7.67434627   5583.44707429-2779.47476839    4.27592347     18.04934227   14.57732597   15.73305767
    1   -1.35874356   -2.63626654   -7.69846229  -1395.67042763-6105.66495903 -122.98690275     15.15184684   13.19640619   15.68022217
    8  -10.21411718    2.88367796   -8.23442102  -9428.19966803  785.95987998 2719.40033764      3.70152103    3.96897057    4.01959651
    1   10.24789274    2.23267591   -7.79255426   4838.12855344-3955.71174211   62.10795068     17.74223969   14.08707805   15.75710664
    1   10.20006768    3.62651239   -8.35067385   4586.86679446 3179.23439363-2796.89184948     17.63780670   17.05274434   14.56875290
    8   -9.05675803    0.58017083    2.40338894   1837.79044871-9210.01241627 -670.85586632      3.99647047    3.70709120    3.93081252
    1   -9.80955708   -0.00359525    2.37209883  -3897.43971273 4916.84482196  473.84159494     14.11050234   17.77598437   15.92832893
    1   -8.30767347   -0.00600925    2.34204780   3850.81613051 4890.80908347  317.39426867     17.33271034   17.76516950   15.86326933
    8   -4.71946095    5.42088788    7.56559198   7736.45876973-5518.68874121 2641.71001154      4.15073082    3.80405574    4.01748256
    1   -4.61708945    4.47697665    7.48174120  -5705.30801878 -397.71909115-2555.55958066     13.36262104   15.56616181   14.67029654
    1   -3.90157469    5.70715696    7.96263271  -2021.17533417 5923.82131789  -84.40033420     14.89214352   18.19065689   15.69623570
    8    9.44274600   -3.39057294    5.76169795   4204.29647273 8902.44771807  459.12195186      4.05824754    4.18100757    3.96038773
    1    9.31789890   -2.65121597    5.17325503  -4033.55442699-3378.90580446-3400.50606754     14.05825804   14.32977265   14.32084466
    1   10.06797070   -3.06972141    6.40565534   -173.65303263-5528.02503251 2937.78417582     15.65923518   13.43837545   16.94978848
    8    7.79230583   -3.14234908    7.94687389  -8663.09750629-1825.10393089-4237.74175519      3.72133846    3.90055706    3.83732184
    1    7.35797972   -3.98349686    7.83596833   4751.14095739-2837.93960356 2864.37932033     17.70797617   14.55053001   16.92300391
    1    7.19207454   -2.51852230    7.54806302   3908.42442265 4657.52320412 1389.51173653     17.35735483   17.66905938   16.30937902
    8    3.56777607   -6.38795309   -6.61460407   9175.64261167-3181.11064704-1538.67654276      4.18838078    3.86518933    3.90814710
    1    4.38262706   -5.90652122   -6.50157689  -3224.79622362 5035.16664451 1832.38388799     14.39238427   17.82179956   16.49205776
    1    3.84796649   -7.24847765   -6.91371033  -5959.48608622-1857.38814336 -288.16031346     13.25699624   14.96012427   15.61164390
    8    5.11517794    0.09768905   -4.66375979   -969.62669615 8138.2855766819811.27488991      3.92286926    4.16128213    4.46640472
    1    6.04669595    0.00013551   -4.48688953   1055.25367181-1057.85827136-6089.44382947     16.16893750   15.29251981   13.20559360
    1    4.73546254    0.27627981   -3.80793680  -5727.77377664  367.99518631-2580.61191260     13.35559964   15.88390765   14.66092152
    8    2.37031207    5.77977890    4.63560695   9208.47738559-3592.82590381  -95.37099305      4.18921463    3.85443079    3.94589679
    1    2.64696249    4.87866438    4.77683690  -5971.58753699-1714.71541334  809.16823633     13.25223096   15.01943892   16.06719992
    1    3.18515807    6.24969784    4.48158059  -3205.07081053 5322.65840272 -702.16048032     14.40071406   17.94092704   15.43978988
    8   -6.27238716   -0.90349900   -3.16492501  -8427.91914085 4213.07972612 2857.54423070      3.72782074    4.05865383    4.02317685
    1   -7.13461878   -1.30357240   -3.09442067   2366.86033004-5468.32115961-1929.98088532     16.71457385   13.45949042   14.92948183
    1   -6.41479801    0.00002999   -2.89683046   6073.43040341 1242.27134870 -916.37899642     18.25445964   16.24737577   15.35057701
    8    4.38298701   -2.57126094   -7.98841404   4336.92462692 8833.37777617  769.78942003      4.06170958    4.17919502    3.96850488
    1    3.98814759   -1.74626787   -7.72007511  -5523.49603538-2879.56601617  760.47283235     13.44034757   14.53692280   16.04668642
    1    5.29157898   -2.34486250   -8.16652159   1185.75091932-5962.15159630-1535.36096337     16.22305745   13.25839626   15.09447285
    8   -8.48502407   -8.80034992   -6.47408207  -1135.56775849 9707.29864959-1251.39389623      3.91869971    4.20220916    3.91567120
    1   -9.26159491   -8.33487740   -6.77200537  -3073.31593019-5431.97282031 -509.03084158     14.45568419   13.47669517   15.52000510
    1   -7.84407439   -8.11003316   -6.32856090   4211.33506526-4274.57804184 1771.31130144     17.47921748   13.95707136   16.46647433
    8   -2.75792010   -6.98259495   -2.43521900  -3889.71295613 8149.31425814 3949.40422884      3.84669659    4.16145163    4.05164663
    1   -2.32026615   -6.15900675   -2.23850572   5387.28954096-2335.55089957-2168.76755163     17.96709047   14.76197143   14.83120157
    1   -3.65932758   -6.83555448   -2.16258464  -1494.86065562-5815.11036406-1774.67507388     15.11089829   13.31790991   14.99475925
    8    3.81326385   -5.95664097   -9.34052502  -7555.42295958 5950.34477918 2217.12734499      3.75069764    4.10408701    4.00640394
    1    2.88192100   -6.15850248   -9.35859766   1296.78597635-5827.35145640-1882.05676469     16.26990271   13.31085507   14.94955950
    1    3.84659603   -5.04695029   -9.05790034   6246.49456339 -117.87833247 -339.24454900     18.32580209   15.68231561   15.59037400
    8    7.93439196   -0.00028997    0.68882584    772.78694804 6242.76987956-8154.84916633      3.96860924    4.11178966    3.73492315
    1    8.59118143    0.61928453    0.38340981   3357.52254262 -991.10676855 5168.98488913     17.12642337   15.31944922   17.87912960
    1    7.27833902   -0.00040213   -0.00259161  -3403.12760766-4162.92246411 3179.91124538     14.31719157   14.00147413   17.05260964
    8    7.56286699  -10.14051536   -0.00718899   3275.82710016************** 4907.77739134      4.03411186    3.33940503    4.07683082
    1    8.41819326   10.44813266    0.08067700   2539.39085286 4475.19312535-3535.66879228     16.78622982   17.59042887   14.26244586
    1    6.98274273   10.29504350    0.49614044  -4834.09264548 3697.66944101-1405.50951700     13.72303397   17.26741410   15.14738883
    8    0.00706704    7.76361100    0.48221188   7216.39308012 3804.29475924-5520.99257258      4.13711652    4.04788170    3.80400475
    1   -0.00058248    8.58526697   -0.00083185  -5825.77693502 1143.63337646 2030.82255664     13.31276823   16.20604457   16.57436791
    1    0.86922645    7.39881470    0.30302247  -1365.94632318-4967.92591062 3568.74199398     15.16421304   13.66889998   17.21281381
    8   -7.49815598    5.59327895    8.02027706   5328.32077531  392.08391558 8291.86733029      4.08761145    3.95863681    4.16504442
    1   -7.21754586    4.86692789    8.56998293  -2860.98811906-4040.11082076-3855.57044392     14.54465158   14.05562168   14.13213562
    1   -7.14422478    6.36306249    8.45696881  -2481.22374614 3657.77793118-4437.98539113     14.70215898   17.24835017   13.89057212
    8    7.85421894   -0.00991392    3.43741494   -876.94259572 9910.66339346 -501.04354423      3.92546560    4.20749726    3.93529081
    1    8.53786562    0.63874679    3.29459966   4265.43243739-4556.31181179 -360.93956518     17.50145539   13.84036779   15.58149429
    1    7.05933604    0.50854364    3.52603890  -3337.04374984-5238.03470335  822.91998223     14.34639200   13.55745077   16.07279953
    8   -5.94509706   -8.77217718    6.61215494   -798.80913357-9748.16317039 -881.57716547      3.92746344    3.69299091    3.92529344
    1   -5.62750980   -9.32344122    5.90241912   2257.93429465 5032.81287005-2919.25864688     16.67035492   17.82440913   14.51715007
    1   -6.35492757   -9.38602529    7.21524452  -1466.86752139 4709.20852806 3808.73016505     15.12119720   17.68982406   17.31534311
    8    0.00049685   -4.08014433    8.81182918  -7215.95694886**************17782.80288594      3.75954129    3.39100471    4.41370234
    1   -0.15943740   -4.95346376    9.15855590   4159.58153488-2368.35005166-3992.91289635     17.45944120   14.74730735   14.07236353
    1   -0.57699885   -3.51985424    9.32279007   2018.36856653 4972.19677500-3205.62348491     16.56984289   17.79706221   14.39946301
    8   -9.22989500   -0.52538494    7.33871395   4283.70460751 8668.79645951  246.59623813      4.06032747    4.17491504    3.95485313
    1   -9.02646378   -0.00019619    6.56975796  -2475.88752572-4431.76637235-3731.22440742     14.70426702   13.89292726   14.18353078
    1   -8.91084766   -0.00038218    8.06748856  -1881.10946804-4418.54949046 4012.42240409     14.95098051   13.89841150   17.39564354
    8    8.69781463    4.17824622   -0.00050941  ******************************************     53.30079743   28.48761031   11.23884353
    1    7.92700685    4.73889801    0.00623747    596.25178851 1356.20731873-6096.25758499     15.97839789   16.29376321   13.20292921
    1    8.75870379    3.85919005    0.89559542   5113.91422667-3287.32005178-1504.15851701     17.85214155   14.36788785   15.10742197
    8    7.58086375   -0.55988902   -1.60347158  ******************************************     -2.44504404  -13.97892454    2.90103377
    1    8.07044683   -1.37733761   -1.57963206   5250.39350445 3166.43654686 1016.39203492     17.91797257   17.05000177   16.15459477
    1    6.68179535   -0.83406003   -1.76146225  -1842.71243263 5954.77280413   92.47272233     14.96380325   18.21128141   15.76979065
    8    0.77465994    0.01429782   -6.34544807   -276.53466947-9788.99440719-1120.34135587      3.94114444    3.69192701    3.91903548
    1    0.00567197   -0.54823124   -6.37168009  -3659.46570930 4952.08448020  855.19721987     14.20930702   17.79080980   16.08694087
    1    1.50455357   -0.58725028   -6.46330919   4016.58263847 4765.38968669  356.23561320     17.40175483   17.71316061   15.87944269
    8    3.95305205   -6.04756209    7.07365501   8029.55190877-2948.80692729 4896.16886663      4.15827999    3.87131026    4.07637545
    1    4.29458575   -6.93320772    7.16013001  -4719.91884566-2166.25862337-3494.64099440     13.77281131   14.83243669   14.28122121
    1    4.56831304   -5.51381021    7.56872744  -3311.23534767 5117.05315096-1389.81909345     14.35731206   17.85452901   15.15458199
    8    0.09040204   -5.32141914   -0.45915503   6901.06576266-6842.99734489 1622.00336037      4.12894258    3.76935900    3.99082697
    1    1.00512355   -5.30810211   -0.72678083   -866.62110385 5582.66696871-2681.61572758     15.37136280   18.04981077   14.61758633
    1   -0.00260952   -6.14984901    0.00294495  -6034.97794002 1254.29453080 1063.68223028     13.22490515   16.25220000   16.17303997
    8   -8.16615204    9.95060891   -8.02320993   1268.59335217-2903.63298560 9357.31556486      3.98156033    3.87247249    4.19304748
    1   -8.82734018    9.63733288   -7.41232518  -4406.53862178  729.65117568-4397.82862939     13.90240107   16.03412213   13.90600104
    1   -7.35601462    9.91972618   -7.52196130   3141.68488206 2178.04551115-4959.13505275     17.03518658   16.63525983   13.67303351
    8    6.89828107   -1.62259406    0.64740890   9155.14672479 -343.37638272-3843.72693553      4.18785301    3.93940920    3.84785932
    1    7.62810904   -1.02190859    0.77013961  -3329.45627894 3288.78084927 4210.39358511     14.34889915   17.09676627   17.47941857
    1    7.21737760   -2.24360190   -0.00143522  -5453.48455237-3019.79546867  243.56824044     13.46702136   14.47748076   15.83241269
    8   10.04444591    0.54140283  -10.05092309  -3191.59809964-8859.99335145-2775.69810927      3.86474210    3.71617536    3.87564278