 BEGIN_INFO
   #
   # This is a XCRYSDEN-Structure-File
   #
   # aimed for Visualization of geometry
   #
   # Launch as: xcrysden --xsf HICOLM.XSF
   #
   #
 END_INFO
 # estrutura final
CRYSTAL
PRIMVEC
      21.14766605       0.00000000       0.00000000
       0.00000000      21.14766605       0.00000000
       0.00000000       0.00000000      21.14766605
PRIMCOORD
  927    1
    8    2.45874339   -8.82132061   -8.69611060  -2868.40005723-9000.45103274 2796.41294844      3.94089050    3.92484924    3.95571483
    1    2.53977558   -9.63850942   -9.17998544   2721.79207737 3056.70659469-4731.31675202     15.84433440   15.85821268   15.53475315
    1    2.03713357   -9.07714441   -7.88045442    144.24794581 5937.73138055 1935.24893617     15.73728015   15.97788192   15.81164378
    8   -4.00713261   -9.71815861   -6.79096861  ****************************-2166.48201669      3.90393920    3.84238812    3.94500084
    1   -3.56088639   10.44408859   -6.70416442  40239.9713878018836.45330251 5130.88169547     16.73473449   16.22918924   15.85813010
    1   -4.92215044   -9.95580238   -6.91246243  **************49295.90715199-2959.47268232     15.43346385   16.91577903   15.65853127
    8   -5.33135160   -2.94920660   10.13510239   8159.08548140 1859.90354024-5182.13095359      3.96974200    3.95326285    3.93483953
    1   -4.51665743   -2.56200043   10.44308059  -2396.57974635  487.33328942 5754.37730702     15.63175155   15.75151853   15.97024471
    1   -5.17327344   -3.11326943    9.20958257  -5765.38298306-2342.88995158 -574.97327390     15.49185647   15.63397838   15.70739795
    8    2.08252439    5.98056639   -6.87420761  -6031.35225845-7780.23698281 -261.37348225      3.93261499    3.92803908    3.94771275
    1    2.31486759    5.05622358   -6.88450243   6057.95296364 1515.87258930  147.62001693     15.98290173   15.79423996   15.73741091
    1    1.12956457    5.97901359   -6.89319643    -20.68971698 6252.16251137  102.11463265     15.73042001   15.99096923   15.73552059
    8    5.76023840   -0.69744760   -5.89752761   5411.11360474 1817.50612044**************      3.96255340    3.95315074    3.90964042
    1    5.19567157    0.00043357   -5.57701742  -2404.40952710-3870.59826220 4387.49053086     15.63143030   15.57054097   15.91347855
    1    6.24827858   -0.29112644   -6.60831343   3021.87328991-5376.27193720 -997.99069745     15.85677006   15.50801450   15.68983492
    8    2.88755639    5.24825439    7.50489440  -6617.25187859  892.60234524 7240.03550842      3.93108596    3.95073273    3.96733842
    1    2.17237558    4.65696257    7.72258456   1662.65008790-3755.15208110-4717.96016198     15.80032094   15.57532871   15.53534459
    1    2.81421658    5.94613558    8.14993857   4956.86869215 2862.27549587-2524.00203851     15.93712293   15.85014118   15.62645521
    8    4.17553840    8.76437739   -3.53399560   6232.69833902 -850.27172957 7592.65292719      3.96470279    3.94616632    3.96826196
    1    4.14989956    9.22441958   -2.69960543  -5155.00184486 3039.36797141-1825.30860365     15.51722234   15.85748914   15.65548001
    1    4.94414257    8.20488957   -3.46530544  -1082.09253435-2191.97440102-5757.24882404     15.68634456   15.64026239   15.49220863
    8    6.60266674   -0.00022761    9.16270550  ******************************************     10.90441101    3.87029133    6.10501396
    1    7.08443057    0.23864056    8.37571957  -2982.49693176-4431.95798443-3248.56063905     15.60742891   15.54723997   15.59637914
    1    6.93139557    0.60063157    9.82558258  -3805.21762972-2584.37220702 4259.08817417     15.57326717   15.62396784   15.90812430
    8   -5.36916961   -9.30848060   -2.42399161  -3397.52349581 5143.43057800-7685.35508884      3.93950923    3.96185614    3.92828871
    1   -4.91724942   -9.09815543   -3.23641642   5063.58766583-3058.48623923 2018.87333380     15.94157232   15.60425274   15.81512867
    1   -6.22719143   -8.90628843   -2.52662741  -1659.94901814-2079.69619123 5664.53195775     15.66232734   15.64489717   15.96652897
    8   -9.75849661   -0.40779561   -1.44186661  ******************************************      3.85376778    3.90043941    3.92180404
    1   -9.96293639   -1.33873544   -1.43441241  43532.58125746-9445.3408075314649.86547732     16.77780571   15.50432899   16.10389225
    1   10.44698059    0.00010861   -1.77479442  15930.9861994138167.04235757 2109.35298063     16.15232371   16.68974767   15.79524014
    8    0.52956733   -9.02230000    6.26462991  ******************************************   7260.21133264 3644.89162470 3004.94060769
    1    0.38260256   -9.89259942    6.62490257  -5970.98763624 1114.10850588  -33.61263760     15.47841993   15.77830087   15.72987171
    1    1.47653157   -8.96636441    6.17549157   -563.92492797 5628.62559910-2233.46656552     15.70739365   15.96950059   15.63670325
    8   -4.45222964    7.83422339    0.42511541  ****************************90855.73125903      3.23594493    3.85929896    4.18609237
    1   -4.64182741    7.00259657   -0.00026343   6137.22520017-1047.40549408 -668.55924740     15.98619220   15.68777062   15.70350767
    1   -5.31257942    8.19179758    0.62619458   2692.46808203 5042.80312190 2535.45692322     15.84310910   15.94073318   15.83659370
    8    2.42188739   -5.76575660    4.23109439  -1448.03273707 3141.30872554-9218.38512162      3.94460852    3.95661603    3.92427801
    1    1.71205157   -5.22158743    3.90168159  -2465.64503870  269.43007851 5741.69587265     15.62886938   15.74246680   15.96974411
    1    2.95639958   -5.93853943    3.46106958   3921.10817092-3404.43345153 3480.08532003     15.89413046   15.58988215   15.87581368
    8   -4.14014861    8.79594640   -9.41153061  -7257.15910019 5841.58503503-3163.66556193      3.92941052    3.96367873    3.94012027
    1   -4.86648342    9.15483257   -8.90939542   2123.85811394-2866.32848201 5126.59962114     15.81948918   15.61224445   15.94419168
    1   -4.27935442    9.13361757  -10.29192543   5132.45502985-2971.62130839-1969.10707337     15.94442268   15.60787140   15.64947686
    8   -1.36388060   -9.02411460    8.89324639   4839.09440309 8462.21446378-1097.86013604      3.96103993    3.97051788    3.94550896
    1   -0.43275142   -8.89560044    8.73517457    872.52298821-6176.35688691   57.80860235     15.76752129   15.47484258   15.73369509
    1   -1.71729744   -8.13934543    8.92112758  -5721.70529726-2299.48240476 1022.12048010     15.49369459   15.63580215   15.77371600
    8    4.19173339    3.42529039   -2.80645760   -726.67301880-4801.82430747 8567.01855924      3.94649591    3.93583504    3.97080937
    1    3.73925057    2.60533057   -2.62919144  -1741.47191376 -341.57455045-5991.95330792     15.65895611   15.71709237   15.48244126
    1    4.55790458    3.67376958   -1.96225543   2457.52374855 5139.13899559-2572.86704092     15.83333392   15.94469533   15.62442915
    8    3.04608040    3.39416439   -8.94958761   4091.03980624-8959.67618355  333.71355005      3.95909556    3.92495395    3.94927569
    1    3.77264157    3.10054259   -8.40700242    427.44376871 5711.97300770 2520.62562583     15.74903151   15.96850868   15.83595887
    1    2.80744156    2.62107858   -9.45345543  -4522.73255780 3247.41348508-2850.48057155     15.54345442   15.86615589   15.61289095
    8    8.54549739   -6.09831360   -4.57683761  -2853.08975398 9434.60157792  354.72777466      3.94092612    3.97308119    3.94932546
    1    7.65730757   -5.75432244   -4.54093543  -2265.60651199-5829.79652761  -96.90406450     15.63719930   15.48918862   15.72724468
    1    9.09482358   -5.31939543   -4.57170343   5112.25243067-3599.36988859 -258.38859197     15.94357553   15.58180490   15.72052585
    8   -9.31859961    5.10326440   10.32803940  ************** 3443.8754031852045.67473351      3.90257048    3.95408566    4.03118458
    1  -10.25878543    5.19322457   10.45633054  -5527.97512519 -122.13967539**************     15.59472458   15.72724647   14.73481841
    1   -8.96565739    5.08639757   -9.78672244  33480.10750774-3322.89374763**************     16.59499739   15.64497280   15.41368748
    8    0.07975140   -2.79818860    7.94995739  10016.2074389326259.85965993**************      3.97459860    4.01709405    3.91439949
    1    1.01620357   -2.96615444    8.00781258  -1163.16635093-6095.76373983  979.02952122     15.68298672   15.47817006   15.77191353
    1    0.02309556   -1.85986543    7.79235757  -6241.35921896 -409.23856698 -129.76409461     15.47211446   15.71429745   15.72588474
    8    8.65992240   -0.01052160   -6.23967661   5940.44235581 7857.93378310 -650.53532339      3.96393571    3.96895106    3.94669536
    1    9.60912857   -0.00391744   -6.32609343     53.68147864-6240.51861375  -32.47732281     15.73350794   15.47216382   15.72993435
    1    8.42431756    0.91268857   -6.21377043  -6035.45079778-1535.40168017  540.81520060     15.48067303   15.66753161   15.75373007
    8    7.26057140    7.23368640    4.46991840   7142.92265663 5015.28947993 4575.49685832      3.96708116    3.96151582    3.96036561
    1    7.31773756    8.17443657    4.61213257  -5455.12514116  786.50536638-2947.91501076     15.50476273   15.76393444   15.60887891
    1    8.05448857    6.89118556    4.87102657  -1677.18523791-5795.52492923-1616.26878122     15.66163556   15.49063230   15.66415837
    8    3.73987240    9.49196940    0.19320440   1967.6563874628861.8842005412006.16831538      3.95357723    4.02371554    3.97993185
    1    3.01732658   10.08271658   -0.00030243   4066.49258667 4670.12917995 -776.13654824     15.90034245   15.92498716   15.69909856
    1    3.31566058    8.65365857    0.35374258   5575.07432644-2686.86986913  935.95333878     15.96284912   15.61967311   15.77014753
    8   -0.64381861    8.58773540   -1.71090460   -246.02816187 4314.8019223010683.84925667      3.94775066    3.95968513    3.97634642
    1    0.00069857    8.30958056   -1.06613243  -1719.20734093-5965.92990505 -866.53229999     15.65989438   15.48353940   15.69529258
    1   -0.54498944    9.53524657   -1.74180244  -4508.57462973  322.75171854-4331.64232762     15.54405396   15.74463595   15.55138934
    8    3.47541261   -0.00130817   10.25744471  ******************************************      7.12006970   10.37492226  -36.85421811
    1    4.23452557    0.54163257   10.45101259    -39.69321558-2047.86746191 5937.40150647     15.72947939   15.64607607   15.97788789
    1    3.29989656    0.16780657    9.33598757  -4822.02459348-3941.22657207  145.05879343     15.53099484   15.56754332   15.73737429
    8    3.62752739   -9.57617260    9.09034439    974.82517611 2813.20939416-9399.00283442      3.95094707    3.95576477    3.92380244
    1    4.40725958   -9.24007743    8.65726158   3209.45439203 -535.07467295 5348.52019284     15.86456244   15.70905181   15.95342776
    1    2.96574756   -9.57869243    8.40438958  -4189.66436436-2269.34185779 4047.99775702     15.55725962   15.63702479   15.89940273
    8    5.57798205    0.01403040    8.84330129  **************29009.85545451**************     -2.97492936    4.02429425    1.78494226
    1    5.33686856   -0.90550342    8.77387757  -6026.84606722 1600.49082952 -170.64641133     15.48097866   15.79774252   15.72419406
    1    6.52998557    0.00004859    8.88792558    362.04115477 6187.80988056 1805.29214267     15.74630833   15.98824660   15.80624647
    8   -1.24028360    4.17234539   -6.95117061   4267.55578285-6772.50668625-5410.80712467      3.95956260    3.93067750    3.93423968
    1   -0.30418142    4.08527858   -7.10812142   1038.83496706 5195.68682342 3333.01381739     15.77442514   15.94706776   15.86970842
    1   -1.62035244    3.42372158   -7.40239442  -5711.34038448 1808.95148013 1810.52588728     15.49407041   15.80640576   15.80647717
    8    5.40350340   -8.57770761   -2.83488460   6085.80455093-2013.59993638 7472.92389263      3.96431753    3.94312986    3.96794550
    1    5.90508557   -7.96529242   -2.30397143  -2324.85015439 4773.04153325-3296.01016917     15.63473023   15.92947542   15.59440622
    1    5.62633357   -9.43150443   -2.47450544  -3758.26298615-2752.48416330-4175.97560659     15.57521513   15.61696709   15.55786985
    8   -9.16916755    2.26615956   -0.00324960  **************************** 9463.96213660      5.10836846    7.34391543    3.97315699
    1   -9.88115943    1.63247858    0.00050657  -3719.64751674 4093.42337347  -33.40234689     15.57678145   15.90129911   15.72989111
    1   -8.38205642    1.72861658   -0.00225643   4013.92243727 5358.57014422  -55.35228674     15.89798871   15.95383855   15.72898010
    8   -2.46063960    5.57450739    0.87161040   2986.86280398  382.33629508 9561.54732237      3.95620983    3.94939761    3.97340855
    1   -1.56170442    5.33926057    1.08392556   1101.27115739-1305.41753277-6033.57693616     15.77700375   15.67706774   15.48074215
    1   -2.83678744    5.82799358    1.70991557  -5470.44004887 1192.31103849-2806.12906326     15.50412172   15.78078347   15.61475747
    8   -5.62301760    0.45409239    0.05041840   7032.15926241************** 7164.29694235      3.96679399    3.88912206    3.96713983
    1   -4.75896442    0.05402058    0.00733856   1486.73491858 3720.15577048-4786.26862369     15.79302003   15.88576863   15.53250951
    1   -6.05173744   -0.00001542    0.77047457  -5142.13979083 3438.39978434 -852.66553857     15.51773371   15.87406746   15.69586857
    8   -7.55552760    2.59579940   -4.02671460   3112.03111559 8215.78566953 4520.35769942      3.95653662    3.96988702    3.96022046
    1   -6.74410242    3.07473156   -4.17065244   1672.73666774-4152.46311185-4376.19599430     15.80073439   15.55885788   15.54957191
    1   -7.99923244    3.09337556   -3.34550843  -4768.29337198-4059.33763193 -140.95736429     15.53328563   15.56273250   15.72543025
    8   -7.03398561    3.68903839    6.09198639  -4352.15228761-2497.28547892-8494.58128698      3.93700875    3.94186175    3.92616901
    1   -7.88066243    3.97635458    5.76170358   -825.67006543 3479.89199675 5137.32319995     15.69698468   15.87582357   15.94467158
    1   -6.70789042    3.10474257    5.41319658   5189.05589148 -995.20999506 3339.63577539     15.94681463   15.68994264   15.86999719
    8    4.92319740    7.56474139    6.95756739   3698.18394044-6766.77305185-6120.01060660      3.95807236    3.93069093    3.93238475
    1    5.01609657    7.61760459    6.01042757  -2498.63612815 5726.94757268   68.67319999     15.62750570   15.96914784   15.73413035
    1    5.27085257    6.70448058    7.17570159  -1194.92345701 1040.23915258 6049.84688559     15.68164971   15.77448723   15.98254603
    8   -6.04683460   -9.34052861    0.40369939   5839.08342253-5659.95649736-5528.71049199      3.96367347    3.93358896    3.93393283
    1   -5.21154743   -9.11091341    0.00611458   -424.21102339 5742.49197390 2415.77173824     15.71365828   15.96976896   15.83160607
    1   -6.18592044  -10.24621043    0.14123458  -5419.76438984  -81.62216851 3111.90715895     15.50618667   15.72788148   15.86050826
    8   -4.28377560    0.23557440    6.04162139  34200.0078190749829.76257092**************      4.03786935    4.07875974    3.84317237
    1   -3.45586543    0.00015156    5.63217958   -996.48909505-6015.00819176 1429.11617334     15.68989869   15.48149949   15.79062132
    1   -4.33645944    1.18052657    5.92853758  -5518.05942165   61.28974067 2949.38593857     15.50213582   15.73382522   15.85375209
    8   -0.78661661    0.70226939    5.55925739    960.52699993-9676.72807020-1331.28882875      3.95091019    3.92307785    3.94491345
    1   -0.86057243    0.20760558    4.74787757  -1207.95990246 5288.15402206-3114.01566529     15.68110569   15.95091611   15.60193944
    1   -0.59044143    0.03995958    6.21603458    186.87291533 4432.11311687 4427.64961886     15.73903974   15.91536380   15.91517713
    8    3.40312240    8.71180139    9.68997839   2720.55862755-6603.42302811-6793.32155909      3.95551572    3.93111225    3.93062391
    1    3.94277057    7.93514058    9.80863359    566.51178469 1324.34433687 6082.97164838     15.75480233   15.78628702   15.98392600
    1    3.18978857    8.70463458    8.76103757  -3297.06900898 5268.45375961  710.08806428     15.59433307   15.95010709   15.76077215
    8   -0.80511260    5.23883639    0.00020439   1780.37214949************** -712.80084945      3.95305507    3.92182505    3.94653225
    1   -1.53387244    4.62450158   -0.00026543  -4055.63347855 4790.12512775  -11.31489656     15.56282951   15.93022571   15.73080663
    1   -0.03272642    4.68034258    0.00060557   3666.82017249 5064.89566862    5.47919508     15.88357389   15.94163635   15.73150319
    8    5.31212839   -0.00753261    5.62235040    837.44948384  153.87893963 9856.03653824      3.95058763    3.94879974    3.97417940
    1    4.61171556   -0.00255343    6.26880056  -4248.19889080  -90.91725684-4582.49040415     15.55487202   15.72750025   15.54099193
    1    6.10882058    0.00289257    6.14548756   3444.83295551  -63.80711074-5230.28243548     15.87432174   15.72862665   15.51409174
    8   -1.03018061   -6.31126960    4.66146039  -9417.72956231 2293.49617524-1968.47929803      3.92375631    3.95439814    3.94324677
    1   -1.49754642   -5.51223142    4.88863758   5165.15300929 2246.67471529 2736.64994420     15.94580180   15.82458558   15.84494132
    1   -1.68038542   -6.83634544    4.20317957   4226.22213436-4544.71834703 -787.87622288     15.90680325   15.54251429   15.69855135
    8    3.92999340   -8.99376660    4.52051239   9077.16358649 3755.90997329  583.86544199      3.97214183    3.95822196    3.94992592
    1    4.76172357   -9.45287944    4.44342457  -3049.22990917-5390.39641318 -857.93904306     15.60465549   15.50744311   15.69562779
    1    4.18048456   -8.08570042    4.66600257  -6035.05137439 1631.14851211  283.80797538     15.48067532   15.79901348   15.74305607
    8   -0.42921161   -2.84703060   -7.69368461  -5244.47535020 8785.62345525  490.23801119      3.93467690    3.97138239    3.94968049
    1    0.00002858   -1.99621643   -7.67436043   5580.16475649-2777.27983312    4.31927674     15.96300363   15.61593429   15.73145647
    1   -1.35875743   -2.63627944   -7.69847643  -1394.84967437-6101.49012882 -122.69326325     15.67335462   15.47789067   15.72617841
    8  -10.21412062    2.88367440   -8.23442460  **************12689.0583776245049.75750806      3.65750779    3.96874637    4.02076183
    1   10.24787766    2.23266250   -7.79256842  ****************************13828.80129863     18.10928561   13.57525121   15.95513257
    1   10.20005265    3.62649764   -8.35068748  95042.9886507984480.26064095**************     17.97069909   17.56468843   14.35801317
    8   -9.05676160    0.58016739    2.40338539    713.41084131-9618.13080759 -728.35922135      3.95150054    3.92364827    3.94655127
    1   -9.80957043   -0.00361042    2.37208457  -3884.49232651 4926.26666340  473.72370741     15.56951019   15.93593089   15.75098055
    1   -8.30768842   -0.00602442    2.34203357   3860.81660861 4902.59879132  317.98937128     15.89162066   15.93490078   15.74448830
    8   -4.71946460    5.42088439    7.56558840   7731.36299146-5515.37718281 2642.05301030      3.96862308    3.93396844    3.95530618
    1   -4.61710244    4.47696257    7.48172757  -5701.65455350 -397.65289594-2554.56984469     15.49450043   15.71476828   15.62520558
    1   -3.90158843    5.70714159    7.96261857  -2019.77717686 5920.50276895  -85.27390532     15.64739768   15.97713371   15.72775535
    8    9.44274240   -3.39057660    5.76169439   4196.25968642 8880.99560782  457.35183225      3.95937157    3.97162911    3.94959410
    1    9.31788556   -2.65122943    5.17324157  -4024.08575325-3370.89382568-3392.53912057     15.56418132   15.59130092   15.59040728
    1   10.06795657   -3.06973444    6.40564058   -173.33604184-5515.26783625 2930.59977228     15.72408063   15.50226456   15.85297288
    8    7.79230239   -3.14235261    7.94687039  -8690.94877379-1830.63517450-4251.43277253      3.92565636    3.94360650    3.93727264
    1    7.35796458   -3.98351043    7.83595358   4766.47872536-2847.30652854 2873.57578469     15.92925550   15.61301454   15.85063487
    1    7.19205958   -2.51853742    7.54804858   3920.99241307 4672.51191057 1393.91729233     15.89413782   15.92535673   15.78917613
    8    3.56777240   -6.38795661   -6.61460761   9170.35380715-3179.48009409-1537.94438364      3.97238766    3.94007927    3.94437365
    1    4.38261357   -5.90653642   -6.50159142  -3223.07291453 5032.38409113 1831.54689494     15.59743106   15.94026097   15.80733423
    1    3.84795356   -7.24849143   -6.91372443  -5956.18131193-1856.37057748 -287.85334847     15.48393111   15.65418754   15.71932121
    8    5.11517439    0.09768540   -4.66376360   -980.53883973 8136.5696523319790.69387743      3.94582974    3.96968363    4.00017004
    1    6.04668158    0.00012157   -4.48690244   1052.54947040-1055.28919591-6074.90560776     15.77498495   15.68745762   15.47902525
    1    4.73544956    0.27626557   -3.80795043  -5714.17902578  367.19696320-2574.46711240     15.49400535   15.74652318   15.62437560
    8    2.37030840    5.77977539    4.63560339   9201.79482696-3590.50649226  -95.25838414      3.97246922    3.93900438    3.94814760
    1    2.64694956    4.87865057    4.77682257  -5967.18245124-1713.28451668  808.60928854     15.48347751   15.66012726   15.76485645
    1    3.18514457    6.24968258    4.48156657  -3202.75265304 5318.91065187 -701.53930351     15.59827639   15.95215299   15.70214330
    8   -6.27239061   -0.90350260   -3.16492860  -8432.39826623 4215.26299011 2859.06089095      3.92633515    3.95942541    3.95587704
    1   -7.13463342   -1.30358544   -3.09443443   2368.03801670-5471.31516540-1930.98438940     15.82962651   15.50404880   15.65108148
    1   -6.41481341    0.00001558   -2.89684443   6076.76144073 1243.13709292 -916.81320246     15.98365160   15.78290266   15.69320056
    8    4.38298340   -2.57126460   -7.98841761   4326.25822149 8812.31211305  766.55967033      3.95971414    3.97144849    3.95040378
    1    3.98813456   -1.74628143   -7.72008943  -5510.34946614-2872.57780219  758.80665342     15.50246968   15.61199357   15.76278231
    1    5.29156458   -2.34487544   -8.16653543   1183.02434453-5948.06362371-1531.42209399     15.78039642   15.48429505   15.66768238
    8   -8.48502761   -8.80035360   -6.47408561  -1133.49409610 9692.86814215-1253.29186310      3.94543072    3.97375797    3.94512217
    1   -9.26160843   -8.33489044   -6.77201943  -3070.04730422-5425.87853259 -507.49173678     15.60379258   15.50595770   15.71018367
    1   -7.84408942   -8.11004644   -6.32857542   4206.68791039-4269.76234126 1769.27309154     15.90596575   15.55396623   15.80475097
    8   -2.75792361   -6.98259860   -2.43522260  -3884.96936863 8138.42166693 3944.22152636      3.93823417    3.96968755    3.95871510
    1   -2.32028142   -6.15902043   -2.23851943   5380.40624195-2332.45569923-2165.93273311     15.95470410   15.63441638   15.64133365
    1   -3.65934143   -6.83556744   -2.16259843  -1492.84421271-5807.52806866-1772.41917874     15.66928487   15.49011106   15.65767652
    8    3.81326039   -5.95664460   -9.34052860  -7553.07948386 5952.45027131 2215.44368067      3.92863197    3.96396848    3.95419550
    1    2.88190658   -6.15851544   -9.35861143   1297.32491289-5828.57492879-1882.67571056     15.78514860   15.48922286   15.65309677
    1    3.84658059   -5.04696443   -9.05791443   6247.73252034 -117.79774329 -339.38342769     15.99074188   15.72638333   15.71718486
    8    7.93438839   -0.00029360    0.68882239    773.03714951 6247.60928524-8163.12120020      3.95041902    3.96474234    3.92704040
    1    8.59116658    0.61927057    0.38339458   3360.46753341 -991.63145642 5174.13254408     15.87084576   15.69008632   15.94615848
    1    7.27832557   -0.00041544   -0.00260642  -3406.45261592-4166.77931389 3183.00736964     15.58980737   15.55822641   15.86346817
    8    7.56286340  -10.14051862   -0.00719260  37102.35055410**************77157.40249777      4.00788642    3.66992992    4.06976795
    1    8.41817862   10.44811765    0.08066352  66657.8135064092171.39589757**************     17.12627557   17.82696499   14.23135462
    1    6.98272949   10.29502863    0.49612656  **************73950.51660645**************     13.43252965   17.42867487   15.30288327
    8    0.00706340    7.76360740    0.48220839   7211.10070570 3800.05518375-5516.82897127      3.96726150    3.95833984    3.93396446
    1   -0.00059544    8.58525258   -0.00084642  -5821.58960620 1144.02660130 2029.31847029     15.48952632   15.77876029   15.81555098
    1    0.86921257    7.39880156    0.30300758  -1365.10333529-4963.81759894 3566.16306323     15.67459154   15.52513619   15.87936985
    8   -7.49815960    5.59327539    8.02027340   5317.54020877  390.84620137 8272.46302665      3.96230414    3.94941976    3.97003571
    1   -7.21755943    4.86691456    8.56996957  -2855.34138549-4030.24461512-3846.84379007     15.61273809   15.56392584   15.57155317
    1   -7.14423843    6.36304758    8.45695556  -2476.48241151 3649.52839888-4427.57350631     15.62846910   15.88280577   15.54743302
    8    7.85421539   -0.00991760    3.43741139   -876.00901874 9898.43422416 -500.37418494      3.94610566    3.97429015    3.94708778
    1    8.53785058    0.63873356    3.29458557   4259.69442321-4551.23731388 -360.55013810     15.90816691   15.54230162   15.71630815
    1    7.05932257    0.50853056    3.52602457  -3332.69987105-5231.32375108  821.88442981     15.59288661   15.51404568   15.76540650
    8   -5.94510061   -8.77218061    6.61215139   -798.06530640-9773.59433556 -882.56249656      3.94630526    3.92282491    3.94608599
    1   -5.62752442   -9.32345642    5.90240557   2262.31706840 5045.90257489-2926.86824917     15.82527121   15.94085159   15.60971345
    1   -6.35494143   -9.38604042    7.21522958  -1472.07626239 4720.85515937 3817.92666794     15.67016474   15.92736326   15.88986687
    8    0.00049339   -4.08014761    8.81182540  -7221.33152132**************17780.63180779      3.92950571    3.89265502    3.99492378
    1   -0.15945242   -4.95347743    9.15854256   4163.41837841-2367.77590662-3992.97200605     15.90416443   15.63289928   15.56539523
    1   -0.57701342   -3.51986942    9.32277657   2022.83025295 4974.13574516-3204.74415027     15.81522458   15.93788309   15.59812239
    8   -9.22989860   -0.52538860    7.33871039   4267.23262701 8649.23886533  245.52948630      3.95956739    3.97102243    3.94904158
    1   -9.02647743   -0.00020944    6.56974457  -2470.19753996-4422.00505915-3722.79453471     15.62870030   15.54765506   15.57668602
    1   -8.91086143   -0.00039544    8.06747358  -1876.75031762-4409.08987881 4004.03777493     15.65334284   15.54819708   15.89753117
    8    8.69778664    4.17823052   -0.00051657  ******************************************      8.88473313    6.40285066    4.67758325
    1    7.92699257    4.73888358    0.00622456    594.50025404 1353.20933113-6083.67072826     15.75596249   15.78747714   15.47864457
    1    8.75868858    3.85917657    0.89558157   5103.01287609-3280.66518774-1501.60886525     15.94318946   15.59504508   15.66893074
    8    7.58086336   -0.55988369   -1.60347461  ******************************************      3.30899291    2.15549697    3.84364806
    1    8.07043158   -1.37735242   -1.57964642   5275.10940023 3180.83371000 1021.29131639     15.95038696   15.86340486   15.77369679
    1    6.68178157   -0.83407541   -1.76147643  -1851.59521138 5982.62287996   93.00082746     15.65437153   15.97977349   15.73513861
    8    0.77465639    0.01429439   -6.34545161   -277.55539613-9813.88878583-1123.29962301      3.94767092    3.92271924    3.94545761
    1    0.00565857   -0.54824642   -6.37169442  -3668.69690457 4964.79916797  857.22946094     15.57889700   15.93748397   15.76688426
    1    1.50453858   -0.58726542   -6.46332343   4026.85341163 4777.61065931  357.14570612     15.89852977   15.92970924   15.74611218
    8    3.95304840   -6.04756561    7.07365140   8016.40106628-2943.95265634 4888.38855226      3.96936746    3.94069556    3.96118446
    1    4.29457256   -6.93322143    7.16011657  -4711.94446398-2162.89925161-3489.06667660     15.53560684   15.64146791   15.58639533
    1    4.56829957   -5.51382542    7.56871357  -3305.84449426 5108.60793228-1387.70366016     15.59400024   15.94341604   15.67365494
    8    0.09039840   -5.32142261   -0.45915860   6900.76738860-6843.42796462 1621.88991702      3.96645068    3.93049404    3.95264009
    1    1.00510957   -5.30811742   -0.72679443   -866.49339141 5582.77444161-2681.52095526     15.69529064   15.96312092   15.61991636
    1   -0.00262244   -6.14986342    0.00293058  -6034.81183498 1254.49720699 1063.72998440     15.48065708   15.78337138   15.77545247
    8   -8.16615560    9.95060539   -8.02321360   1265.33613001-2893.05944991 9349.60781867      3.95170923    3.94082003    3.97285148
    1   -8.82735344    9.63731857   -7.41233844  -4401.38607894  728.01734225-4392.90680234     15.54850660   15.76152605   15.54886154
    1   -7.35602942    9.91971158   -7.52197444   3139.01030222 2174.75844611-4953.53454527     15.86160644   15.82160251   15.52557999
    8    6.89827740   -1.62259761    0.64740539   9150.80062635 -343.26116753-3841.69738412      3.97233616    3.94749886    3.93834696
    1    7.62809557   -1.02192342    0.77012458  -3327.81095919 3287.08531589 4208.53305352     15.59308127   15.86778412   15.90604391
    1    7.21736456   -2.24361543   -0.00144943  -5450.68703746-3018.40377462  243.52783727     15.50492208   15.60593354   15.74138982
    8   10.04444240    0.54139940  -10.05092660   8772.8303456322987.66891888 9492.74019466      3.95645516    3.96978790    3.95678459