 BEGIN_INFO
   #
   # This is a XCRYSDEN-Structure-File
   #
   # aimed for Visualization of geometry
   #
   # Launch as: xcrysden --xsf HICOLM.XSF
   #
   #
 END_INFO
 # estrutura final
CRYSTAL
PRIMVEC
      24.93722404       0.00000000       0.00000000
       0.00000000      24.93722404       0.00000000
       0.00000000       0.00000000      24.93722404
PRIMCOORD
  927    1
    8    2.91977055  -10.47515731  -10.32647187    -71.74291337 -209.30399920   75.59380067      4.31689733    4.29389177    4.34456136
    1    3.01612981  -11.44542164  -10.90093122    -15.41013970  160.05618893   91.44175392     17.21260564   17.69192835   17.49811010
    1    2.41925022  -10.77880942   -9.35775829     85.96682417   45.30329899 -170.46273561     17.49650862   17.36971571   16.76513595
    8   -4.75837226  -11.54014069   -8.06414085   -103.05516365 -232.03451838  -13.11817911      4.31075204    4.28714719    4.32749777
    1   -4.22832694   12.40239993   -7.96092751    -86.52609742  176.13585388  -16.86005305     17.01869059   17.75850575   17.20560039
    1   -5.84480679  -11.82220386   -8.20827808    191.43345179   60.54741377   28.44978578     17.79927493   17.44217490   17.33801412
    8   -6.33086468   -3.50209891   12.03534595    199.31328404   46.12434688 -126.34483963      4.36556803    4.33838529    4.30767891
    1   -5.36329345   -3.04216292   12.40120009   -165.87487943  -78.62122255  -61.00188960     16.78624344   17.03171591   17.08360155
    1   -6.14301478   -3.69678632   10.93644032    -33.45355375   32.49603462  187.34452985     17.15633781   17.34242777   17.77798016
    8    2.47301541    7.10188900   -8.16298608   -129.18643316 -189.65665867  -16.96945017      4.30900724    4.29604661    4.32584106
    1    2.74905400    6.00438104   -8.17507620    -52.05553490  185.03297397    6.52652765     17.09803716   17.76836916   17.27711961
    1    1.34152514    7.10017993   -8.18540021    191.17928457    1.71916540    7.34571173     17.78464356   17.25970992   17.27765665
    8    6.84025252   -0.82816456   -7.00319145    -16.79762112  226.60472903  -79.86932920      4.32708618    4.37048180    4.31596706
    1    6.16997289    0.00069303   -6.62245580    113.92051932 -142.14381892  -63.88973486     17.57121187   16.85232729   17.07481341
    1    7.41992740   -0.34552978   -7.84710360    -97.97004018  -75.86726642  153.67648075     16.97892060   17.04978064   17.69891860
    8    3.42898029    6.23227828    8.91200874   -161.45032778   22.46671979  176.58604654      4.30144785    4.33415801    4.36155579
    1    2.57984900    5.53026308    9.17064700    145.30504877  118.62109557  -45.24097427     17.66083789   17.58369030   17.12338132
    1    3.34202525    7.06113605    9.67812325     16.18706977 -141.08837432 -131.39033327     17.29983229   16.85757932   16.88277363
    8    4.95844223   10.40762811   -4.19652806    152.36789320  -19.02491381  185.98499682      4.35725836    4.32687154    4.36329860
    1    4.92813108   10.95405578   -3.20556813      3.88435782  -93.06492861 -170.00953821     17.26128848   16.99189282   16.77432539
    1    5.87128234    9.74337970   -4.11482502   -156.31160048  112.40976625  -15.81833894     16.81300038   17.56648458   17.20508689
    8    7.84062484   -0.00022501   10.88063737    167.06706795  171.26875032  -23.45800884      4.35992207    4.36052738    4.32622380
    1    8.41284689    0.28356180    9.94623861    -98.38737403  -49.11098658  158.17935904     16.97526127   17.11344085   17.69376848
    1    8.23112019    0.71342053   11.66792845    -68.03097739 -121.40134086 -134.66637209     17.05978372   16.91247002   16.87370521
    8   -6.37577327  -11.05365317   -2.87841318    -82.85329978  124.48692683 -186.78885698      4.31542590    4.35219175    4.29699970
    1   -5.83899027  -10.80376067   -3.84302021    -90.20131475  -42.74069088  164.45079819     17.00176627   17.13239969   17.71340802
    1   -7.39452625  -10.57592173   -3.00015665    167.75687928  -88.21453859   26.64184904     17.71363728   16.99589429   17.33618217
    8  -11.58804150   -0.48420686   -1.71215256   -204.56603965 -106.44829509  -66.75091980      4.29374436    4.31124836    4.31823994
    1  -11.83067572   -1.58954868   -1.70316607     42.85255767  188.03108818   -0.87289464     17.37516239   17.77946313   17.25124985
    1   12.40583390    0.00030784   -2.10736442    161.85475814  -81.00224010   67.80949529     17.70822676   17.02776233   17.44355896
    8    1.02866693  -10.51322660    7.60454398   5770.69784193 2719.40453079 2707.99979221  40273.7345276920210.2488553216658.70428213
    1    0.45451693  -11.74714700    7.86716276    216.61171402  457.01437472 -107.36559384     17.69112683   18.44548565   16.86228001
    1    1.75354169  -10.64726047    7.33349476    169.74118069  -50.14285155  -68.18432457     17.43606606   17.14722078   17.17117953
    8   -5.28691917    9.30308240    0.50486405   -214.59848630  -95.04028429  -46.34699907      4.29198191    4.31345307    4.32180130
    1   -5.51192875    8.31567320   -0.00013196     39.64443923  167.30279698   86.09021149     17.36602087   17.72002096   17.49432456
    1   -6.30843636    9.72783097    0.74377722    174.80846115  -72.32754621  -39.69529386     17.74397760   17.04954211   17.14325139
    8    2.87600457   -6.84671501    5.02441396    -34.44008724   76.66224599 -226.18778243      4.32419854    4.34375393    4.28994766
    1    2.03322025   -6.20038790    4.63337626    142.78469438 -110.13448472   68.73540829     17.65102957   16.94368718   17.44795765
    1    3.51086423   -7.05175730    4.11015632   -107.89052872   34.08633749  156.75390166     16.95030275   17.34694547   17.69296044
    8   -4.91632704   10.44511600  -11.17602382   -168.11257793  141.87144013  -63.71964639      4.30113483    4.35521883    4.32012543
    1   -5.77870360   10.87142241  -10.57961145    145.26148113  -70.92990214 -106.17496606     17.65659834   17.05577449   16.94596164
    1   -5.08149709   10.84622997  -12.22134436     23.53526654  -64.80606568  175.88818254     17.31034481   17.07681615   17.73749183
    8   -1.61954507  -10.71597222   10.56065835    117.21676611  203.73889477  -27.77991370      4.35088464    4.36601823    4.32541623
    1   -0.51370899  -10.56322904   10.37308521   -187.45249309  -24.39149301   31.69982360     16.72605349   17.18583067   17.33831026
    1   -2.03908745   -9.66518799   10.59390153     71.26369834 -178.93415621   -5.34069544     17.45171746   16.75058646   17.23628200
    8    4.97767345    4.06753239   -3.33258625    -18.03076712 -109.62834251  199.38881832      4.32678794    4.31092177    4.36466424
    1    4.44049181    3.09397767   -3.12195070     90.91178193  168.70519918  -29.54198227     17.50525590   17.73018391   17.17940703
    1    5.41263064    4.36273233   -2.32997471    -79.74884401  -51.23596267 -172.48789271     17.02094087   17.10838098   16.76830900
    8    3.61722565    4.03057059  -10.62747253     99.79889884 -219.06855770   10.77171528      4.34785245    4.29108822    4.33239050
    1    4.48014041    3.68203416   -9.98302636   -147.17217165   61.77855411 -110.31659727     16.83994527   17.42966189   16.94209382
    1    3.33398035    3.11267807  -11.22567309     46.73666944  157.61602153  100.50677684     17.38098918   17.69669814   17.53162691
    8   10.14771095   -7.24162196   -5.43488937    -68.82367073  230.74317725    8.39693153      4.31797684    4.37125046    4.33165074
    1    9.09313406   -6.83300329   -5.39212139    179.33392887  -71.77848529   -7.20978763     17.75449302   17.04751712   17.23228192
    1   10.80016204   -6.31653420   -5.42865791   -110.22179706 -158.74848005   -1.03511357     16.94498552   16.80557668   17.24949804
    8  -11.06566953    6.06010456   12.26445635   -119.79306176   15.31863439  207.19642172      4.30888611    4.33291307    4.36696488
    1  -12.18199082    6.16706556   12.41693466    190.13795555  -18.32025957  -27.31302772     17.78555692   17.20090258   17.17344405
    1  -10.64642133    6.04021015  -11.62142655    -69.74512747    3.04992883 -179.94889163     17.05938069   17.26036240   16.74675900
    8    0.09474901   -3.32276694    9.44051506    180.44045066  159.18903752  -18.97972403      4.36226582    4.35856585    4.32690028
    1    1.20690599   -3.52208921    9.50935191   -190.40423748   31.78548123  -11.69384368     16.71725691   17.33828257   17.21965680
    1    0.02760563   -2.20838816    9.25350241      9.79322311 -190.94410482   30.63230893     17.27714396   16.71572142   17.33674053
    8   10.28358927   -0.01244899   -7.40948885    133.85962578  188.49880980  -14.50322969      4.35251861    4.36343283    4.32735183
    1   11.41089157   -0.00447209   -7.51197276   -189.46779913   -2.40208542   17.87502962     16.72656487   17.24413657   17.30306525
    1   10.00394691    1.08398342   -7.37859092     51.35229559 -183.88841808   -4.03645166     17.40355431   16.74232757   17.24316331
    8    8.62187839    8.58995275    5.30801459    172.41290193  112.55089689  118.97529410      4.36042382    4.34916236    4.35233749
    1    8.68989703    9.70721369    5.47702623     -7.74801630 -188.25137276  -33.28275471     17.24014554   16.72979907   17.15254202
    1    9.56477734    8.18337311    5.78445890   -159.98820410   74.89789025  -82.87715193     16.80819550   17.47286685   17.01786379
    8    4.44109922   11.27164710    0.22947810   1000.33215330 3231.30565167 1330.04597690      5.02146970    6.26502311    5.11554084
    1    3.58321773   11.97327106   -0.00017888    167.02992072 -152.22461907   37.23259798     17.75929923   16.76527797   17.35210538
    1    3.93748417   10.27628653    0.42024214     83.99167335  123.15190493 -112.13731226     17.48586007   17.51639734   16.79271627
    8   -0.76448088   10.19786817   -2.03163150    152.57743434  138.49714106  126.81970796      4.35726222    4.35489378    4.35278339
    1    0.00100783    9.86769819   -1.26583996   -131.87537217   54.08183662 -131.77035736     16.88073460   17.40056345   16.88122232
    1   -0.64698820   11.32315759   -2.06818761    -21.33205301 -192.58577418    4.59941225     17.19088426   16.71155942   17.26281195
    8    4.12705178   -0.00150870   12.18062902    121.39596482  145.61541738 -147.43108182      4.35191850    4.35601700    4.30415276
    1    5.02862149    0.64336011   12.41061948   -154.91996712 -110.25606433  -38.90089414     16.81623876   16.94299363   17.14318136
    1    3.91876403    0.19944752   11.08654458     33.76664411  -35.07631701  186.34456552     17.34426331   17.15263991   17.77440932
    8    4.30768627  -11.37153394   10.79470948     24.56050240   64.94753939 -229.96708014      4.33438217    4.34143663    4.28900172
    1    5.23374093  -10.97229164   10.28056538   -153.58160797  -75.67979887   94.23054860     16.82991845   17.02943644   17.52729960
    1    3.52196767  -11.37439151    9.98028370    132.62351996    1.97592479  140.28212228     17.62464504   17.25833660   17.65161163
    8    6.62382604    0.01670591   10.50134933    144.61252550 -191.01358512   -4.11099164      4.35577520    4.29615933    4.32958351
    1    6.33764168   -1.07509141   10.41904432     47.35087475  185.50224802   13.62239720     17.38286568   17.77248341   17.28945457
    1    7.75444963    0.00023759   10.55447455   -193.46962653    4.37685188   -9.44232665     16.70922980   17.26735175   17.22473503
    8   -1.47277525    4.95465034   -8.25437870    117.23626526 -169.71756286 -124.08801125      4.35137637    4.30013593    4.30813608
    1   -0.36103388    4.85139465   -8.44062056   -192.01886774   17.07371287   32.24381232     16.70951961   17.29884821   17.34341278
    1   -1.92396652    4.06580600   -8.79006519     74.73935653  151.82960536   91.54596820     17.45824838   17.67871616   17.50950659
    8    6.41663452  -10.18586996   -3.36634294    147.98010759  -48.31205555  182.48588216      4.35642547    4.32169241    4.36253003
    1    7.01239018   -9.45850168   -2.73575723   -101.20961521 -123.57245009 -108.60929086     16.96865187   16.90649992   16.94673671
    1    6.68137648  -11.19960573   -2.93826370    -45.52972968  171.58336835  -73.60243654     17.12356123   17.73122492   17.04546365
    8  -10.88803270    2.69163522   -0.00380973  46838.93270498**************  992.56370542     32.26898389   86.78222244    4.92358321
    1  -11.73355779    1.93871819    0.00078109    451.54190226 -272.48921618  -12.37829076     19.07873875   15.75264093   17.19554678
    1   -9.95339532    2.05289415   -0.00250004    185.08462432  252.45401879  -15.93548841     18.39669070   18.22047064   17.17737025
    8   -2.92193256    6.61969949    1.03507150    -30.28308025    8.03344087  289.32787446      4.26373858    4.34074676    4.41381672
    1   -1.85432534    6.34048255    1.28732641   -164.13419084   62.86229075  -55.46014414     16.82351516   17.45742727   17.07484744
    1   -3.36846718    6.92084521    2.03068011     70.97701786  -44.05087285 -170.36408474     17.44283871   17.14250913   16.77346072
    8   -6.67721295    0.53926727    0.05991699    386.48479994-1749.75197672  246.58735294      4.54419625    3.33928307    4.43627203
    1   -5.65102995    0.06432953    0.00889468   -175.98090957   82.24517024   19.92064920     16.75695950   17.48343105   17.32760494
    1   -7.18617785    0.00016254    0.91510707     84.01675546   90.22657583 -126.11675790     17.48663585   17.50018402   16.93687594
    8   -8.97204455    3.08252296   -4.78162546     75.77618701  199.24420777  109.57023487      4.34362081    4.36548212    4.34951797
    1   -8.00835508    3.65138202   -4.95241478   -164.07220641  -98.07862017   29.29860186     16.79274377   16.97570985   17.33302914
    1   -9.49880254    3.67352149   -3.97256904     87.89715194 -101.57776625 -136.89878159     17.49621221   16.96637887   16.87080175
    8   -8.35272041    4.38072971    7.23419877   -107.56061512  -60.93587564 -206.49653490      4.31096055    4.31931608    4.29345160
    1   -9.35800123    4.72204794    6.84212806    171.16286906  -59.38853980   73.16789247     17.73207584   17.08388223   17.46930305
    1   -7.96535264    3.68702224    6.42828127    -64.91735317  118.38133851  138.34438575     17.07200163   17.58454805   17.64186512
    8    5.84627742    8.98307602    8.26206488     89.43992595 -160.39634954 -146.25733313      4.34596891    4.30221374    4.30450832
    1    5.95672841    9.04598500    7.13748579    -18.08442107  -12.26670845  189.37064980     17.20311861   17.21471523   17.77892388
    1    6.25924718    7.96166443    8.52123064    -70.60568846  173.18125906  -44.20534902     17.05407860   17.73612278   17.12788622
    8   -7.18049139  -11.09170994    0.47943275    143.32629216 -136.69678728 -144.54942679      4.35564183    4.30600225    4.30344128
    1   -6.18846618  -10.81891065    0.00744189   -167.75853899  -45.71301862   85.94394592     16.78499301   17.12553381   17.50313470
    1   -7.34551910  -12.16705828    0.16789478     25.76741939  182.43381805   57.64406438     17.32151588   17.76160296   17.42219731
    8   -5.08687022    0.27980534    7.17437598   3101.77891764 4776.55947915-3797.83965046      6.10533684    7.11646992    2.07811127
    1   -4.10361694    0.00036029    6.68831995   -169.65767811   43.83967893   78.71079647     16.77413341   17.36687606   17.46702681
    1   -5.14930870    1.40203756    7.04024048      6.72758971 -184.88200048   18.88428488     17.26551592   16.74618471   17.29912110
    8   -0.93405173    0.83398064    6.60159022     20.47476603 -238.56652274  -32.90669395      4.33326093    4.28765053    4.32414929
    1   -1.02173838    0.24670992    5.63822398     16.96079853  100.94859971  163.49714524     17.30378315   17.53684527   17.70978852
    1   -0.70096202    0.04763290    7.38163770    -38.26513008  134.77526801 -131.01826663     17.14782444   17.63120328   16.88838786
    8    4.04120831   10.34519471   11.50676702     67.58240365 -152.64841905 -168.21186546      4.34227243    4.30393820    4.29994734
    1    4.68216681    9.42305678   11.64780310   -109.21065404  154.97636924  -21.41826193     16.94614367   17.68264639   17.19685009
    1    3.78801233   10.33681896   10.40379906     41.82005308   -1.18853641  188.93524072     17.36712003   17.24352671   17.78400635
    8   -0.95601490    6.22109421    0.00028758    157.60497726 -270.83663996  -51.89709827      4.42020272    4.26933444    4.29128473
    1   -1.82127217    5.49171624   -0.00013552    131.76019402  128.27459172   -6.85061578     17.59365953   17.61920389   17.22029814
    1   -0.03868420    5.55802648    0.00089905   -156.66512938  113.62550807    4.48835258     16.81273877   17.57178532   17.27121785
    8    6.30812781   -0.00889970    6.67651254      5.29194298   17.99881916  241.72624508      4.33121312    4.33534191    4.37471684
    1    5.47653304   -0.00285253    7.44429677    136.91778951   -8.26834213 -124.45972097     17.62923326   17.21278496   16.91451041
    1    7.25432215    0.00361471    7.29786430   -159.69142242   -2.07555900 -107.58061858     16.80701409   17.24663811   16.94829747
    8   -1.22328099   -7.49450454    5.53546806   -242.44000992   58.51362619  -47.78485818      4.28471678    4.34050499    4.32058952
    1   -1.77813558   -6.54552435    5.80537231    101.83115744 -157.34895365  -40.99105859     17.55035024   16.81579750   17.14713522
    1   -1.99525405   -8.11788930    4.99140149    139.25496913  104.61587849   94.94245578     17.65556240   17.54450892   17.52205826
    8    4.66686082  -10.67993445    5.36809422    222.07486469   91.19078115   18.74929257      4.36950582    4.34625121    4.33427039
    1    5.65466204  -11.22498921    5.27668825   -168.45085551   91.00805078   13.08793220     16.78052098   17.50488052   17.28348659
    1    4.96444970   -9.60148528    5.54099618    -53.02715017 -182.96916411  -31.32805643     17.10162030   16.74208294   17.15946781
    8   -0.50963808   -3.38076613   -9.13610423   -101.05068650  219.59298121    2.76516599      4.31231647    4.36937131    4.33066649
    1    0.00021276   -2.37030298   -9.11302236    -86.51369315 -173.93610890   -3.83158081     17.01045325   16.76235824   17.24142496
    1   -1.61332456   -3.13036789   -9.14165974    187.53529158  -45.16973233    1.07618664     17.77737306   17.12192450   17.25526319
    8  -12.12908903    3.42437060   -9.77822582   -231.29869583   17.45990005   65.69034482      4.28889828    4.33313534    4.34175042
    1   12.16940112    2.65143886   -9.25339381    110.75392740  131.98545333  -89.27751691     17.56645799   17.62286069   17.00211933
    1   12.11260965    4.30659632   -9.91615147    119.83211936 -149.08253832   23.36685306     17.59061993   16.83634963   17.31759197
    8  -10.75473945    0.68898637    2.85403373    211.42847542 -174.47855721  -16.08101743      4.45100293    4.32503537    4.33128137
    1  -11.64855567   -0.00410580    2.81699936     99.62326935  131.55719665   13.60961070     17.43463158   17.64291016   17.30423916
    1   -9.86509286   -0.00697262    2.78131420   -154.68750039  122.50301203   17.16231326     16.81047640   17.59989826   17.31000178
    8   -5.60425692    6.43727402    8.98408198    186.41656616 -136.28030218   61.48620865      4.36299486    4.30571430    4.34072972
    1   -5.48256886    5.31651631    8.88463325    -20.83548232  191.33999916   18.13703368     17.19445535   17.79001027   17.30589314
    1   -4.63290707    6.77733483    9.45568384   -165.49548853  -56.14982027  -80.08423032     16.78918887   17.09810056   17.02930018
    8   11.21317772   -4.02621989    6.84198152     97.65226236  201.86620620   10.71621752      4.34712993    4.36429393    4.33169905
    1   11.06504677   -3.14812187    6.14333769     23.51853460 -143.60200553  121.89074380     17.31490144   16.85974813   17.59913926
    1   11.95574447   -3.64509003    7.60679240   -127.66057125  -57.79608701 -126.16799966     16.89293286   17.10311242   16.90346901
    8    9.25330168   -3.73145734    9.43684925   -208.12106112  -54.14248763  -87.91962559      4.29328170    4.31937263    4.31675553
    1    8.73766709   -4.73018442    9.30527186     86.94850064  171.33618510   16.70707546     17.49456799   17.73547872   17.28948111
    1    8.54065753   -2.99055153    8.96338905    122.73367343 -117.89720052   70.64468687     17.59944804   16.93577583   17.43440552
    8    4.23672812   -7.58556944   -7.85471449    209.51358917  -71.42522312  -32.06211083      4.36559179    4.31799995    4.32559574
    1    5.20447392   -7.01375571   -7.72037487   -166.15188528  -98.28577826  -25.24496649     16.78597941   16.97537469   17.17627423
    1    4.56957370   -8.60730646   -8.20977651    -47.94843966  173.52109469   54.40548609     17.13339222   17.73608123   17.39249466
    8    6.07424761    0.11604527   -5.53811272    120.17540890   13.31347241  201.17570872      4.35227589    4.33215377    4.36462869
    1    7.18053256    0.00032448   -5.32795808   -187.97802319   21.13627775  -29.52916901     16.72601307   17.31425538   17.18214397
    1    5.62346485    0.32824117   -4.52171325     75.76574505  -35.63136398 -172.52511940     17.46254443   17.15339461   16.77062871
    8    2.81475537    6.86345240    5.50476325    221.23790952  -87.42947281   -4.80596155      4.36913411    4.31470408    4.32906304
    1    3.14339703    5.79351540    5.67259357    -55.77917890  181.12724843  -27.40732629     17.09692303   17.75837746   17.17758879
    1    3.78249527    7.42159467    5.32198163   -163.98818875  -94.39294660   31.71406600     16.79503323   16.98878928   17.34215211
    8   -7.44833643   -1.07285226   -3.75826594   -203.18066032  102.75110126   69.31580117      4.29418179    4.34827846    4.34248782
    1   -8.47210150   -1.54780977   -3.67442056    176.60887789   80.82617272  -15.10963616     17.75095016   17.47921639   17.20854609
    1   -7.61732643    0.00019623   -3.43978545     30.62204053 -181.44165877  -52.91916616     17.34102734   16.74647735   17.10616767
    8    5.20478041   -3.05329762   -9.48609577    109.55459016  221.65296362   21.07756471      4.35015033    4.37019626    4.33424575
    1    4.73603805   -2.07350843   -9.16732558     74.85568246 -170.11408158  -55.71088469     17.45332999   16.76998037   17.09326108
    1    6.28384103   -2.78432959   -9.69747332   -186.10842857  -51.59830956   32.93862000     16.72697993   17.09823945   17.33869816
    8  -10.07581365  -10.45025895   -7.68784644    -22.68467362  233.49801955  -14.88245159      4.32659966    4.37128354    4.32964414
    1  -10.99785664   -9.89739408   -8.04150367    156.11745815  -92.39471874   54.94881718     17.68811598   16.99540942   17.39572359
    1   -9.31457474   -9.63039528   -7.51492082   -126.97007849 -136.73895395  -36.07166447     16.89941464   16.87416098   17.13940882
    8   -3.27495298   -8.29169880   -2.89174963    -99.69014994  199.76337214   97.80398400      4.31188022    4.36562873    4.34771128
    1   -2.75512493   -7.31357790   -2.65803315    -90.45522412 -166.49257932  -46.15009534     16.99671786   16.78868226   17.11571536
    1   -4.34523781   -8.11696701   -2.56787804    184.99404695  -30.78605781  -56.15266377     17.77608865   17.16560728   17.09344770
    8    4.52824162   -7.07339194  -11.09170981   -176.16479019  147.22791715   49.44726568      4.29969603    4.35657102    4.33807871
    1    3.42240819   -7.31297591  -11.11304813    186.53453853   36.76174711    6.68987304     17.77216285   17.34890784   17.27697561
    1    4.56794361   -5.99302626  -10.75597515     -8.35725560 -184.72136324  -56.15619445     17.22588327   16.73321660   17.09694755
    8    9.42202710   -0.00030342    0.81801252      2.84596067  126.50034713 -206.66726647      4.33097222    4.35257905    4.29309926
    1   10.20207566    0.73555407    0.45545664   -134.68795477 -124.23949161   64.30260802     16.87192671   16.90607796   17.43681623
    1    8.64309734   -0.00031350   -0.00291357    131.25306799   -1.06152669  141.82947153     17.61823753   17.24781302   17.65390372
    8    8.98084649  -12.04169400   -0.00849593    158.56500701-1796.46586576  106.48483376      4.40108906    3.34478722    4.34625461
    1    9.99665442   12.40718298    0.09596672   -166.77689693   77.41571719  -11.55361920     16.79801302   17.45711655   17.23110747
    1    8.29208080   12.22539235    0.58932256    116.23915582  115.72682675  -96.88122741     17.57688981   17.57746482   16.98938647
    8    0.00843296    9.21922696    0.57266117    178.57886244   88.63020074 -135.94502016      4.36226384    4.34526519    4.30599464
    1   -0.00052728   10.19505255   -0.00082413     -1.85441456 -164.90109481   97.86682709     17.24181369   16.79285373   17.52684496
    1    1.03235631    8.78616037    0.35999780   -174.59293599   74.52966433   37.38944137     16.76266845   17.46390140   17.35861408
    8   -8.90392077    6.64198618    9.52401452    123.26343191   11.02681845  181.02623464      4.35157921    4.33236558    4.36000802
    1   -8.57057777    5.77957853   10.17690507    -55.50420163  141.76899590  -99.74462694     17.09795001   17.64008589   16.99223358
    1   -8.48351023    7.55621345   10.04270244    -70.87605557 -153.75689984  -87.77316950     17.05483515   16.82509740   17.00812689
    8    9.32682271   -0.01173171    4.08192598    -13.54259585  235.49098123  -15.67424748      4.32881857    4.37169034    4.32676417
    1   10.13876351    0.75866605    3.91245729   -141.32332297 -130.74101625   30.12426661     16.85111125   16.88717336   17.33967759
    1    8.38303437    0.60405193    4.18728761    154.86856133 -107.49721395  -12.85891029     17.67609330   16.94697912   17.22624052
    8   -7.05968373  -10.41680421    7.85188802    -25.07026383 -221.08474396  -20.93348800      4.32445960    4.29176981    4.32680988
    1   -6.68243202  -11.07130097    7.00921045    -56.29714005  105.30253200  138.45682687     17.10802943   17.53967302   17.63158162
    1   -7.54622848  -11.14561854    8.56816877     88.70215381  116.49678461 -119.90081927     17.51142003   17.56732197   16.92026528
    8    0.00063093   -4.84507657   10.46397213   -150.57281470  -61.94075190  174.83043377      4.30346777    4.31929378    4.36118889
    1   -0.18916742   -5.88200742   10.87582795     33.22682989  177.66083809  -71.04859011     17.34646025   17.75146818   17.05154249
    1   -0.68501481   -4.17962058   11.07085307    110.50587605 -129.87613535 -112.31951283     17.54989839   16.85914449   16.91960169
    8  -10.96033815   -0.62384683    8.71466756     82.17328457  200.12385766   73.13620764      4.33915888    4.35858487    4.37000204
    1  -10.71864367   -0.00007034    7.80166619    -29.07451302 -115.51164124  123.29070120     17.19297108   16.90983319   17.53744878
    1  -10.58135176   -0.00029099    9.58019699    -64.28614091 -107.27128663 -146.71649515     17.07219930   16.95001267   16.84284726
    8   10.32935571    4.96203657   -0.00045304  **************98516.6169008428667.32534976    123.49091934   63.33810329   21.44229280
    1    9.41337673    5.62754244    0.00757123    -23.03057031  -34.59426320   -8.90604455     16.86205173   17.29786046   17.21266455
    1   10.40100713    4.58290185    1.06366915    -17.88369537   55.89876348 -178.43355229     17.19062888   17.39378361   16.75884517
    8    9.00211832   -0.66509699   -1.90407642  ****************************-4150.76635851    -10.89482493  -38.42000336    1.87267992
    1    9.58371004   -1.63540614   -1.87562974   -102.93338328  164.93996586  -11.18434791     16.95867382   17.71458942   17.20999237
    1    7.93470967   -0.99027286   -2.09154992    176.71336199   65.43626968   30.13481560     17.73979018   17.45581063   17.33564478
    8    0.91993942    0.01701937   -7.53509528     -8.48358154 -239.51083073  -30.63507178      4.32867225    4.28747044    4.32464945
    1    0.00690112   -0.65085425   -7.56612348    154.34798941  113.71151323    6.17081169     17.68311813   17.57205838   17.27068937
    1    1.78679787   -0.69718871   -7.67493150   -149.26057239  121.44372229   24.61263166     16.83183578   17.59315231   17.32218172
    8    4.69423829   -7.18135959    8.39991331    184.09640146  -62.14242090  124.61252182      4.36129405    4.31985093    4.35306248
    1    5.09992761   -8.23292737    8.50272386    -66.80346485  179.55295493  -22.30255606     17.07223610   17.75887483   17.18132490
    1    5.42497421   -6.54741671    8.98792653   -120.79641159 -109.99454607 -103.10413787     16.92351869   16.93978978   16.96068652
    8    0.10739216   -6.31907441   -0.54519965    161.31889653 -171.31425743   35.34905894      4.35798760    4.29930849    4.33591930
    1    1.19373216   -6.30313981   -0.86287834   -182.13644648    0.36575522   54.67036610     16.74714752   17.25772048   17.40676029
    1   -0.00293399   -7.30270020    0.00365884     20.57843231  167.58079350  -90.76991826     17.31393833   17.72262043   17.00309958
    8   -9.69715730   11.81625822   -9.52741543     33.44878558  -75.35476886  222.06494986      4.33654964    4.31598335    4.36884404
    1  -10.48218480   11.44436983   -8.80187606    133.48058015   66.99983398 -122.89305902     17.62554298   17.44584964   16.90904069
    1   -8.73501046   11.77970714   -8.93206712   -167.98413818    9.94335797 -100.92710563     16.77366702   17.28562070   16.97045249
    8    8.19165906   -1.92676821    0.76883046    217.69057467   -6.69289683 -110.61998910      4.36876902    4.32822598    4.31085122
    1    9.05844131   -1.21334214    0.91469238   -150.48885520 -118.32274601  -24.33724965     16.82670591   16.92685085   17.18519735
    1    8.57070461   -2.66408253   -0.00153968    -67.63150599  125.28495263  135.95856039     17.05808458   17.60380994   17.64270479
    8   11.92768843    0.64294965  -11.93529816    -80.84394620 -214.46523766  -59.78625263      4.31541379    4.29227267    4.32033363