 BEGIN_INFO
   #
   # This is a XCRYSDEN-Structure-File
   #
   # aimed for Visualization of geometry
   #
   # Launch as: xcrysden --xsf HICOLM.XSF
   #
   #
 END_INFO
 # estrutura final
CRYSTAL
PRIMVEC
      22.74808590       0.00000000       0.00000000
       0.00000000      22.74808590       0.00000000
       0.00000000       0.00000000      22.74808590
PRIMCOORD
  927    1
    8    2.45913949   -8.82129305   -8.69537344   2201.54822532 7014.52942605-2184.66809760      4.00593384    4.13171433    3.89130567
    1    2.54463286   -9.63333136   -9.18224259  -2086.70894883-2411.98814690 3639.44186202     14.86559329   14.73067043   17.24108559
    1    2.03952921   -9.06922158   -7.87634620   -116.98023088-4607.06502144-1452.87054399     15.68273692   13.82003091   15.12853098
    8   -4.01085339   -9.73858922   -6.79071588  19583.1379693544096.71800613 2166.50406786      4.46098525    5.10258090    4.00511082
    1   -3.42855833   10.47880930   -6.68467927  **************-1877.10958060-2123.66141206      9.12660694   14.95058512   14.84884610
    1   -4.98188044   -9.65268348   -6.92239876  -3696.54589595**************  -35.92424605     14.19549224   -1.81419257   15.71631069
    8   -5.33017254   -2.94849998   10.13528343  -5745.81967565-1346.42145710 3625.94813659      3.79792698    3.91313902    4.04335465
    1   -4.51724255   -2.55915102   10.45217596   1707.02411769 -300.61221972-3992.06504654     16.44090240   15.60630010   14.07173969
    1   -5.17786461   -3.11378380    9.21115635   4035.38376613 1649.18580580  364.27578537     17.40879989   16.41683726   15.88269728
    8    2.08276375    5.98070770   -6.87365451   4891.59040231 6257.86516744  161.57539666      4.07615120    4.11183246    3.95261855
    1    2.32239548    5.05979832   -6.88211052  -4843.21756310-1266.88034513 -103.62642137     13.72336498   15.20606225   15.68830059
    1    1.13179707    5.98671890   -6.89084651    -42.40702456-5002.23768577  -69.61564729     15.71370164   13.65744934   15.70240008
    8    5.76157614   -0.69717418   -5.89877027   6255.83974967**************-9023.09928154      4.11207660    3.59919467    3.71240015
    1    5.19497288   -0.00200947   -5.56931099   1523.04685292 2600.95657922-2678.89787613     16.36450176   16.81265549   14.61742041
    1    6.25422164   -0.29541452   -6.60726657  -1959.01234972 3569.17934468  659.58747709     14.91677535   17.21520942   16.00548802
    8    2.88765333    5.24888649    7.50597897   4760.30872712 -659.03011869-5244.41585080      4.07299518    3.93114879    3.81113142
    1    2.17651786    4.65497133    7.71950360  -1216.43968019 2670.13259727 3399.53859004     15.22585396   16.84066871   17.14372033
    1    2.82208944    5.95164053    8.14934573  -3540.77630061-2010.50668073 1843.05893285     14.26011817   14.89593542   16.49703651
    8    4.17662638    8.76487598   -3.53279438  -4119.39718846  529.12010894-4989.67621917      3.84036792    3.96227510    3.81754379
    1    4.14533433    9.23070333   -2.69975516   3374.88575258-1955.33735968 1226.38368825     17.13620378   14.91728063   16.24181983
    1    4.94497112    8.20424521   -3.47066530    739.05823310 1429.52163856 3768.58148609     16.03894328   16.32634956   17.30009856
    8    6.77165055   -0.00523357    9.21703402  37265.97641863**************32207.69198705      4.92300467    2.61401656    4.79118257
    1    7.10378942    0.27210642    8.39606360  11828.0189587629975.2401515114801.30961111     20.64570830   28.18577932   21.88086906
    1    6.95578570    0.62287494    9.79982190  16564.6590587320262.56694607**************     22.61376615   24.15037795    4.55593839
    8   -5.36881612   -9.30758640   -2.42391064   2591.37200103-3952.30567525 5837.86990793      4.01615085    3.84506606    4.10103073
    1   -4.90988809   -9.09896588   -3.23212882  -3802.14242000 2347.86020073-1562.15587802     14.15326162   16.70568853   15.08292878
    1   -6.22660425   -8.90611628   -2.51865797   1216.84453439 1608.86034661-4277.76067327     16.23629524   16.39897855   13.95587290
    8   -9.77735226   -0.41207672   -1.44398174  41004.9939099918870.80960744 4361.18303434      5.02164658    4.44234216    4.06256728
    1   -9.68276461   -1.38483282   -1.38799268  **************-4155.48206649-4724.19977708     -0.97351051   14.00484374   13.76822194
    1   10.47789307    0.12612331   -1.77344808  -1577.41866720**************  512.91778310     15.07516943    9.28755294   15.94425156
    8    0.83347164   -8.86330407    6.39186935  **************-9223.4957482561722.69227716      8.22922427    3.70638188    5.56323802
    1    0.42292751   -9.90619003    6.61989700  **************16768.0818058110645.71636048      0.78002120   22.69745073   20.15423075
    1    1.47795183   -9.02375429    6.18835592  13410.6034337265545.51570743**************     21.30332741   42.96210474   11.50675111
    8   -4.48269724    7.83140936    0.43688150  **************-2139.0319927555187.11368579      1.13515430    3.89230032    5.39216031
    1   -4.64460774    7.00564273    0.00240646  ************** 3058.08360202 1614.92921553      7.46035793   17.00085274   16.40169193
    1   -5.31264387    8.18990489    0.62625179  -9129.29457042**************-8681.22142056     11.94135166    8.89060757   12.12727366
    8    2.42236828   -5.76499237    4.23109481   1138.81184034-2406.19678687 7117.73734296      3.97816731    3.88550422    4.13445048
    1    1.71188556   -5.21907513    3.90956361   1845.36734134 -185.59295047-4411.30348434     16.49697170   15.65424038   13.90086770
    1    2.96249535   -5.93962294    3.46673414  -2976.44265577 2598.09340650-2703.67089525     14.49622624   16.80929597   14.60942641
    8   -4.14005082    8.79689500   -9.41116645   5463.24736582-4426.90052064 2390.92254411      4.09126382    3.83263554    4.01092185
    1   -4.86204146    9.15413522   -8.90186159  -1619.46967170 2173.86465806-3816.90020171     15.05900928   16.63364713   14.14683470
    1   -4.27180514    9.13281299  -10.29169458  -3844.73447410 2257.91434065 1427.52671365     14.13528479   16.66853470   16.32384734
    8   -1.36291010   -9.02284539    8.89372642  -3206.93304033-5640.39128338  707.99818676      3.86430706    3.80049893    3.96696362
    1   -0.42934261   -8.90144619    8.73749479   -529.31772017 4079.92301549  -50.59574967     15.51095825   17.42948739   15.71020880
    1   -1.72255378   -8.14009258    8.92472517   3741.67937761 1564.51077355 -661.00606713     17.28869842   16.38248312   15.45612701
    8    4.19224891    3.42550847   -2.80526438    498.36997187 3395.11271615-6120.12330343      3.96144610    4.03728379    3.78817151
    1    3.73948901    2.60719358   -2.63386696   1212.67997761  212.36057057 4260.35067411     16.23523905   15.81952122   17.50180326
    1    4.56300705    3.68198300   -1.96297073  -1721.43430210-3611.54920784 1860.74612311     15.01586587   14.23035631   16.50457843
    8    3.04691509    3.39415169   -8.94899737  -3108.21486779 6752.18733525 -254.33365001      3.86711791    4.12497041    3.94174763
    1    3.77534089    3.10868925   -8.40214634   -281.43559023-4280.20330580-1860.22170746     15.61443755   13.95450335   14.95906606
    1    2.80503768    2.62667800   -9.45413768   3389.15344170-2473.27219358 2112.82257729     17.13813867   14.70459474   16.60832513
    8    8.54584748   -6.09701838   -4.57624145   1956.51393511-6521.62925272 -252.23535875      3.99965303    3.77755115    3.94179115
    1    7.65679319   -5.75919002   -4.53879414   1526.11660917 4023.86565505   73.97976161     16.36589470   17.40458747   15.76202776
    1    9.10332917   -5.32153337   -4.56975669  -3481.76202781 2501.74838454  180.52374350     14.28338683   16.77163221   15.80633417
    8   -9.32287052    5.10442378   10.34482350  16584.26523923-1836.15314945**************      4.38259022    3.90033067    3.07007740
    1  -10.28056205    5.19587411   10.22154403  -4200.21081633  642.6896504333231.53141632     13.98570737   15.99831369   29.54079235
    1   -8.86253653    5.07887316   -9.80481458  ************** 1185.12554897  320.53911442     10.58555419   16.22378738   15.86532945
    8    0.08123402   -2.79446955    7.94882877  -3826.5998338313089.79545721**************      3.84797298    4.29058020    3.66774635
    1    1.01705543   -2.97122784    8.01126047   1019.59834153 5177.61817841 -796.96027823     16.15553050   17.88553143   15.39965987
    1    0.01787547   -1.85810818    7.79446739   5370.32526342  373.22545716  134.93648728     17.96569461   15.88658847   15.78739331
    8    8.66098621   -0.00929177   -6.23916979  -3978.48469924-5064.78890550  170.25598629      3.84405933    3.81556275    3.95287354
    1    9.61146814   -0.00995187   -6.32387673     13.21520634 4083.79904820   31.88975104     15.73678363   17.43141459   15.74453458
    1    8.41854506    0.91291929   -6.21079286   3921.02013208 1060.33110733 -344.08517299     17.36365437   16.17270464   15.58801685
    8    7.26176411    7.23469290    4.47088735  -4545.48806789-3206.76477397-2896.41711149      3.82910724    3.86424113    3.87238447
    1    7.31243683    8.17779430    4.61029948   3461.42768244 -455.43520471 1866.99943956     17.17325834   15.54155688   16.50904735
    1    8.05443037    6.88541043    4.87104990   1096.22018303 3667.57590545 1041.71872218     16.18795518   17.25912435   16.16524238
    8    3.74135609    9.49656392    0.19538743  16082.9039016729833.9707635111391.49457148      4.36886137    4.72885095    4.24641509
    1    3.02382706   10.08987825    0.00114106  -2293.27730859-2632.51814260  417.97817990     14.78088385   14.64027344   15.90448295
    1    3.32374635    8.65304562    0.35686222  -3140.34343694 1378.10441564 -688.98042589     14.42983447   16.30234953   15.44563761
    8   -0.64357770    8.58862299   -1.70912966  **************-4739.67888086 2292.35638897      3.68090397    3.82410213    4.00809944
    1    0.00054330    8.30345706   -1.06510255   1072.45902875 3611.15359930  510.28075794     16.17813416   17.23588702   15.94392577
    1   -0.54905326    9.53797684   -1.74563618   2772.00646448 -171.92720859 2602.76508651     16.88623378   15.65965611   16.81575473
    8    3.47622345   -0.00013969   10.25622825  -3730.03774643-3266.01893084 3334.10507752      3.85072884    3.86284878    4.03572862
    1    4.23681258    0.54190562   10.45911138     93.07463523 1159.23696155-3275.08603962     15.76995913   16.21326193   14.36954200
    1    3.29743527    0.16619785    9.33830106   2733.65249937 2224.46057250 -194.93257518     16.86785790   16.65615292   15.65025066
    8    3.62815708   -9.57542499    9.09031413   -780.63188687-2149.90760250 7134.73106171      3.92798757    3.89218705    4.13494581
    1    4.41278472   -9.23836200    8.66493079  -2363.25612559  424.10532154-4047.43214554     14.75040052   15.90728432   14.05138483
    1    2.96377294   -9.57872788    8.41074276   3143.81592874 1725.07403523-3089.48685375     17.03610737   16.44724881   14.44899039
    8    5.41127028    0.01277312    8.79065588  ******************************************      3.58244951    2.70106452    3.52606664
    1    5.28136712   -0.89132145    8.77284669  ************** 7246.07984805-4586.87267399     -5.08957714   18.74099586   13.82618957
    1    6.53287205    0.05644886    8.89486998  -1474.1626511841032.01310262  678.01731368     15.11911331   32.77468779   16.01299166
    8   -1.23948037    4.17251287   -6.95095896  -4006.57307415 5632.03351197 3614.81386262      3.84365993    4.09562248    4.04288156
    1   -0.30090461    4.09263276   -7.10255938   -747.47071506-3980.43651245-2500.33285973     15.42110208   14.07961852   14.69378332
    1   -1.62370607    3.42775724   -7.39834501   4350.64535205-1419.63498475-1380.29815485     17.53652316   15.14221639   15.15853543
    8    5.40457017   -8.57730296   -2.83370460  -4050.85265931 1347.50513405-4990.13024972      3.84219265    3.98372654    3.81756702
    1    5.90432887   -7.95682859   -2.30598654   1558.55358443-3126.90937632 2209.95868190     16.37992227   14.42991385   16.65102303
    1    5.62370945   -9.43282672   -2.47767058   2495.07810746 1787.73041288 2782.04115337     16.76967787   16.47528187   16.88910653
    8   -9.13072772    2.37287101   -0.00185845  43150.0025065656052.57832590 1192.05405829      5.07728801    5.41437442    3.97957013
    1   -9.91191285    1.67100882    0.00259812  **************31426.52069100 -126.44549990      4.05225164   28.78625195   15.67888164
    1   -8.34840934    1.77324153   -0.00029595  28062.0088749036480.87619857 -227.52669755     27.38889001   30.88584847   15.63689056
    8   -2.45989466    5.57511996    0.87301750  -4304.42004414  106.40645449-5079.12779224      3.83559892    3.95117512    3.81514275
    1   -1.55795744    5.33980762    1.07815933   -642.48926843  899.30486515 3932.24687877     15.46378065   16.10562638   17.36834895
    1   -2.84179683    5.83184985    1.70845056   3570.51538743 -737.51738346 1866.43255317     17.21772524   15.42421237   16.50831315
    8   -5.62175279    0.45209776    0.05155977      0.09768204-8639.29008482-3638.08125806      3.94836080    3.72245798    3.85315643
    1   -4.75515543    0.06014794    0.00463107  -1250.19393118-3278.97397960 4247.13554323     15.21181885   14.36885917   17.49591686
    1   -6.05483128    0.00581384    0.77188626   4510.53147277-3044.04821815  868.41498066     17.60535789   14.46647282   16.09207601
    8   -7.55468884    2.59707746   -4.02575519  -1973.26047313-5273.20465591-2905.09979450      3.89662072    3.81003540    3.87217180
    1   -6.73955463    3.07130412   -4.17439130  -1048.29223129 2670.03705614 2797.87279525     15.29467263   16.84337720   16.89660316
    1   -8.00350747    3.09006857   -3.34344517   3041.04322551 2605.39705839  111.20001235     16.99787683   16.81645874   15.77760394
    8   -7.03364802    3.68947340    6.09209931   3569.87259395 2014.67255049 6882.06072770      4.04161816    4.00100721    4.12810510
    1   -7.87910949    3.98156391    5.76833123    619.93186854-2796.04023296-4158.29578051     15.98825068   14.57225648   14.00761302
    1   -6.70123085    3.10614773    5.41828632  -4179.18099803  767.74575864-2741.13260473     13.99892768   16.04951096   14.59504731
    8    4.92398808    7.56490535    6.95776843  -2912.29416903 5284.91544713 4758.97575609      3.87229162    4.08651182    4.07276657
    1    5.01597960    7.62531231    6.01275020   1959.10909036-4430.31692664  -99.70612399     16.54398026   13.89337850   15.68991577
    1    5.27197433    6.70772358    7.18373012    956.42540014 -851.60944900-4660.87970892     16.12802061   15.37798767   13.79773227
    8   -6.04589194   -9.34032181    0.40391427  -4453.17728732 4305.74679603 4192.13019594      3.83196091    4.06098167    4.05801165
    1   -5.20971962   -9.10281477    0.01082437    364.03027727-4313.23355725-1839.05275129     15.88235576   13.94100666   14.96794077
    1   -6.18917590  -10.24404020    0.14666046   4084.22705632    9.46570960-2353.25937612     17.42646544   15.73520539   14.75452000
    8   -4.27923317    0.24222949    6.03724221  14310.5329843429108.60373243**************      4.32259763    4.70976399    3.30695809
    1   -3.45435846   -0.00226159    5.63553807   1547.04396599 8566.56562420-2059.95340846     16.37426458   19.29173835   14.87506302
    1   -4.33847534    1.18286997    5.93307722   7914.71861949   53.36943383-4206.06456298     19.02081617   15.75346209   13.98308964
    8   -0.78599624    0.70226897    5.55974498   -893.82210267 7665.52876111  977.83327557      3.92504119    4.14870489    3.97394902
    1   -0.85944782    0.21482886    4.74721749    946.37319295-4147.07376229 2397.30424043     16.12381546   14.01107364   16.72568103
    1   -0.58799767    0.04638364    6.22246444   -113.01968313-3475.23765904-3392.02576424     15.68438094   14.28974649   14.32425136
    8    3.40384807    8.71198348    9.69015010  -2206.28696129 5162.93341745 5360.22893222      3.89075219    4.08329726    4.08845222
    1    3.94556677    7.93863602    9.81653759   -393.16351306-1055.65595919-4753.96678383     15.56818653   15.29342974   13.75949447
    1    3.18899451    8.71178519    8.76395273   2587.45017603-4111.46817056 -607.89063213     16.80444222   14.02598229   15.47915198
    8   -0.80433009    5.23877769    0.00067608   1104.41252841 7458.27593465 -732.51902234      3.97730113    4.14329395    3.92923594
    1   -1.53546342    4.63129231    0.00197281   3108.59550421-3765.87281489    3.66718811     17.02080951   14.16908154   15.73277708
    1   -0.02700747    4.68737917    0.00287510  -2828.14882261-3993.20950019   13.11819672     14.55804987   14.07476035   15.73670372
    8    5.31276664   -0.00695002    5.62371947   -523.91243381  -80.84143683-6557.49493057      3.93466273    3.94627857    3.77649615
    1    4.60850691   -0.00042229    6.26517793   2807.43485758   49.62427822 3102.13007080     16.89949847   15.75192304   17.02213373
    1    6.11551881    0.00505850    6.14101842  -2249.28870469   30.29966328 3498.61313941     14.79529529   15.74388263   17.18713938
    8   -1.03018085   -6.31056393    4.66190850   7287.89996477-1820.58471634 1473.32713410      4.13885957    3.90081928    3.98690192
    1   -1.49035054   -5.50782491    4.89352055  -4011.69611560-1694.17640496-2087.63060216     14.06700511   15.02842307   14.86520487
    1   -1.67408733   -6.83841768    4.20468832  -3302.71177402 3510.91235447  594.67596894     14.36114318   17.18778586   15.97797583
    8    3.93132227   -8.99288333    4.52113006  -5967.10917750-2486.61234392 -389.25168792      3.79189870    3.88318199    3.93818968
    1    4.75993356   -9.45779861    4.44455234   2023.95951729 3498.89663983  571.04597752     16.57390457   17.18794261   15.96899726
    1    4.17471214   -8.08126245    4.66864246   3936.79854350-1015.30912205 -169.81083201     17.37026976   15.30858258   15.66056906
    8   -0.42909890   -2.84581371   -7.69305710   1899.26022381-6415.99297410  261.53991490      3.99816301    3.78038069    3.95523879
    1    0.00890450   -1.99720894   -7.67209153  -3887.80874128 2043.75812922   14.04562534     14.11509271   16.58086374   15.73709982
    1   -1.35816429   -2.64125832   -7.69636038    928.89371198 4281.94302270   96.20501973     16.11741176   17.51128735   15.77125471
    8  -10.24858713    2.88552077   -8.23099620  ************** 4675.3221666213198.68638974     -1.18675035    4.07069876    4.29374902
    1   10.53833879    1.67042818   -7.59020066  ****************************46682.24704720     57.62561384  -40.34788992   35.11477595
    1   10.47024270    4.17300248   -8.59401137  95395.81616400****************************     55.34861978   69.87754518   -9.15056996
    8   -9.05619165    0.58015947    2.40391125     32.34486568 7725.01989143  612.16651296      3.94924459    4.15023987    3.96439488
    1   -9.81087897    0.00322065    2.37477939   2970.14204543-3876.00487504 -355.58062220     16.96318266   14.12365686   15.58378011
    1   -8.30184918    0.00078402    2.34459528  -2988.05740926-3865.54717014 -230.46268846     14.49191359   14.12798355   15.63567711
    8   -4.71831785    5.42104117    7.56635646  -5445.69798500 3878.99919759-1848.50193018      3.80578723    4.04998080    3.89998996
    1   -4.62161162    4.47874339    7.48094069   3995.02147560  240.05094868 1777.48010119     17.39201157   15.83105601   16.47017321
    1   -3.90171590    5.71643490    7.96476445   1458.77445717-4111.22828688   71.87639925     16.33769700   14.02221038   15.76115364
    8    9.44366420   -3.38926265    5.76230100  -2749.26516954-5837.81823701 -325.69338621      3.87629051    3.79528575    3.93985667
    1    9.31477295   -2.65345745    5.17097185   2612.12246746 2229.33190674 2190.27835989     16.81879311   16.65942754   16.64315310
    1   10.06998603   -3.07482708    6.41181156    138.67290498 3604.26837751-1872.78001511     15.78901912   17.23186663   14.95157157
    8    7.79240060   -3.14188336    7.94721127   7044.00055637 1462.99944249 3487.89453942      4.13234710    3.98660370    4.03948413
    1    7.36431335   -3.98369903    7.84067340  -3866.71654745 2248.80852537-2323.43472059     14.12836563   16.66350642   14.76810390
    1    7.19769080   -2.51226333    7.55149592  -3180.62303504-3717.93961769-1150.13538277     14.41278327   14.19001275   15.25448730
    8    3.56902268   -6.38762423   -6.61415199  -6493.06969219 2228.87937934 1104.38405813      3.77836954    4.00676425    3.97731805
    1    4.38106704   -5.89832815   -6.49717197   2287.19884415-3488.63133259-1275.70856753     16.68202224   14.28111778   15.20098021
    1    3.84318311   -7.24843417   -6.91181706   4198.27099664 1256.81811456  177.40541563     17.47639562   16.25370113   15.80501119
    8    5.11535845    0.09931663   -4.66099353  -8909.33268479 6676.50035532 4202.67427463      3.71510460    4.12303889    4.05796198
    1    6.05029542    0.00102354   -4.49240991   -732.94714301  777.99771094 4555.37893772     15.42621076   16.05509354   17.62736517
    1    4.73036488    0.27899468   -3.80896087   4212.39806135 -264.63749530 1999.13598317     17.48462416   15.62111639   16.56337250
    8    2.37157336    5.78007512    4.63616586  -6384.06242893 2547.20731040   67.50835980      3.78119568    4.01511034    3.95016699
    1    2.64206003    4.87885121    4.78004613   4157.84808110 1150.97497557 -551.03475433     17.45987710   16.20977672   15.50217333
    1    3.18356814    6.25830385    4.48298709   2257.18141255-3683.13851375  495.43335760     16.66969506   14.20002244   15.93723332
    8   -6.27239600   -0.90264763   -3.16416404   6234.80083048-3152.03453999-2107.56477813      4.11151658    3.86593330    3.89325998
    1   -7.12982088   -1.30725840   -3.09426624  -1783.02478709 3986.68988781 1427.73916145     14.99077623   17.38695213   16.32420546
    1   -6.40596942    0.00363495   -2.89557857  -4440.15123628 -847.29742079  689.81319657     13.88725063   15.37938473   16.01774584
    8    4.38391740   -2.56995402   -7.98778407  -2814.57983690-5787.55666965 -505.49024825      3.87457291    3.79659535    3.93513984
    1    3.98300711   -1.74785657   -7.71681905   3552.68790718 1905.78029863 -487.52483991     17.21047193   16.52477161   15.52829073
    1    5.29540882   -2.35057501   -8.16633263   -739.29594789 3873.83029556  985.19272661     15.42347661   17.34418597   16.14146358
    8   -8.48454607   -8.79903580   -6.47361286    781.17904801-6701.35695201  884.80426120      3.96886368    3.77283271    3.97157873
    1   -9.26312828   -8.33929315   -6.77038490   2067.67904031 3740.99536685  332.28700568     16.59115941   17.28704989   15.86945412
    1   -7.83665603   -8.11302549   -6.32414954  -2843.06795899 2956.26060082-1208.20383409     14.54891570   16.96071214   15.22880866
    8   -2.75765877   -6.98139303   -2.43434445   2653.38603112-5587.10798985-2702.64064121      4.01792397    3.80200146    3.87758225
    1   -2.31132732   -6.15965277   -2.23895661  -3628.64307257 1626.18099122 1481.48747429     14.22197724   16.40767312   16.34747883
    1   -3.65894530   -6.84052916   -2.16254227    978.48004927 3959.01448190 1226.89099165     16.13824917   17.37797353   16.24157574
    8    3.81329822   -5.95565659   -9.33980514   5467.58856717-4325.11958132-1644.50820282      4.09148744    3.83520825    3.90536168
    1    2.88561840   -6.16276931   -9.35845448   -970.42444610 4200.59590195 1367.85446428     15.32812858   17.47631057   16.29950722
    1    3.85581632   -5.04483186   -9.05603266  -4497.28384232  131.82800961  265.41000019     13.86296337   15.78603938   15.84152446
    8    7.93506191    0.00076195    0.68886414    750.38760789-2877.80605210 6456.95704563      3.96803002    3.87313509    4.11728524
    1    8.59695242    0.62051153    0.39109493  -2479.08535785  808.72130876-3861.48699645     14.70196537   16.06704297   14.12799558
    1    7.27696192   -0.00251085    0.00298741   2449.93282267 3157.21590895-2419.79573014     16.74846421   17.04211849   14.72658851
    8    7.56487628  -10.17776042   -0.00045455  10883.53538333**************25763.12520634      4.23320367   -1.73040470    4.62248064
    1    8.98299936   10.76516470   -0.12659401  ******************************************     68.91488665   59.76198426   -5.15902581
    1    6.40177198   10.54622747    0.60996652  **************88496.7035268324793.10981808    -41.43022825   52.48282596   26.02473784
    8    0.00817770    7.76445928    0.48236436  -5013.31955557-2754.27392549 3924.35844107      3.81709643    3.87626446    4.05117900
    1   -0.00530447    8.58891279    0.00386531   4059.64433159 -718.07668743-1374.79279748     17.41904881   15.43272142   15.15967850
    1    0.86983030    7.39512565    0.30953844    976.80176350 3454.13366127-2470.47706252     16.13737894   17.16730329   14.70416419
    8   -7.49714202    5.59387843    8.02153979  -3497.27166886 -223.39629538-5423.33179030      3.85666668    3.94253685    3.80614653
    1   -7.21913771    4.86376385    8.56707390   1860.27993273 2583.39551451 2524.11770542     16.50583583   16.80690143   16.78223324
    1   -7.14530492    6.37019671    8.45328526   1619.53271522-2348.22404617 2894.41969012     16.40559925   14.75357133   16.93641782
    8    7.85471878   -0.00856539    3.43793832    682.84543839-6602.98631880  245.08133552      3.96628905    3.77537218    3.95482312
    1    8.54542009    0.63532445    3.29639853  -2861.61841927 3136.24567328  259.08549358     14.54097763   17.03580628   15.83902363
    1    7.05741520    0.50426830    3.52930874   2227.20486778 3581.06511977 -543.35869683     16.65767633   17.22082609   15.50525064
    8   -5.94457805   -8.77217524    6.61267085    584.11353170 7746.57043304  707.74363908      3.96365938    4.15078135    3.96688983
    1   -5.62319760   -9.31658326    5.90197526  -1742.03854738-4001.32220759 2259.41792774     15.00880096   14.07185555   16.66829213
    1   -6.35403902   -9.37947177    7.22097747   1147.68949495-3754.92065309-2960.12073541     16.20723233   14.17403807   14.50363566
    8    0.00053983   -4.08225890    8.81427004   4563.08271508************** 3857.08753097      4.06777961    3.54350128    4.04930799
    1   -0.15311586   -4.95352561    9.15695615  -3749.04488606 2091.00590695 3689.38739207     14.17429296   16.59965349   17.26344517
    1   -0.57275963   -3.51276948    9.32190370  -1834.86167718-4451.86820430 2882.13734061     14.96924288   13.88241355   16.92820230
    8   -9.22898192   -0.52410892    7.33932963  -3025.46688960-5978.65993982  788.07880393      3.86906544    3.79162217    3.96902913
    1   -9.02746669   -0.00380318    6.56704075   1662.58219388 2894.57535234 2334.03239090     16.42335276   16.93624750   16.70291832
    1   -8.91106630   -0.00396364    8.07502766   1275.63312082 2901.73648236-2598.39494343     16.26227980   16.93922617   14.64962231
    8    8.83289059    4.24703847    0.02219203  46854.6255137143643.5711232442173.30032613      5.17404850    5.09020894    5.05186832
    1    7.93451719    4.74984259   -0.02423399   6226.59442118 9359.61562962**************     18.31768381   19.61908703    4.96661589
    1    8.79089747    3.84445199    0.89064658  27310.92281721**************-4436.63970578     27.07553981   10.56606537   13.88854681
    8    7.55775516   -0.62585341   -1.60657727  **************************** -382.82069632      3.14370508    1.61092280    3.93838309
    1    8.05179112   -1.38855262   -1.58157836  ****************************-7525.79462305      0.42049388    5.68263832   12.60586423
    1    6.69077877   -0.85605286   -1.75977844  11595.01783951**************-1173.88023641     20.54638425   -2.17801950   15.24366945
    8    0.77521280    0.01429225   -6.34494103    294.53593626 7680.54752489 1024.13628904      3.95609558    4.14905819    3.97515898
    1    0.00456648   -0.54145522   -6.36862627   2866.44999879-3962.85576552 -633.68410832     16.92007333   14.08777335   15.46846676
    1    1.51051857   -0.58062913   -6.46075182  -3080.99421997-3788.89054178 -299.09559481     14.45349855   14.15992198   15.60721238
    8    3.95425981   -6.04723220    7.07461312  -5420.73046757 1986.46939501-3283.51710488      3.80631724    4.00046456    3.86233436
    1    4.29083246   -6.93372537    7.15792629   3175.99222480 1416.83532100 2338.95806121     17.05269212   16.32075859   16.70443211
    1    4.56635338   -5.50506409    7.56920777   2242.99979991-3401.92722974  955.31923478     16.66451813   14.31585200   16.12875324
    8    0.09146047   -5.32134331   -0.45847466  -4980.33479820 4906.98543450-1209.21093749      3.81803960    4.07683825    3.91674876
    1    1.00638540   -5.29951853   -0.72757188    660.71677000-3976.46130757 1928.37571481     16.00579780   14.07905068   16.53249368
    1   -0.00721130   -6.14618666    0.00640628   4319.59414200 -936.06514687 -715.44355820     17.52604379   15.34233114   15.43399448
    8   -8.16548824    9.95095117   -8.02191617   -859.96743543 1981.75476738-6413.11277515      3.92586638    4.00032124    3.78037191
    1   -8.83053161    9.64047188   -7.41550758   2984.73654859 -494.08886216 3023.17387081     16.97262151   15.52576715   16.98861826
    1   -7.34989200    9.92465283   -7.52583457  -2122.00977670-1472.04329231 3398.70521762     14.84873445   15.11903421   17.14481019
    8    6.89954467   -1.62206504    0.64772552  -5915.91943638  -65.45555348 3694.25434938      3.79348133    3.94668831    4.04511994
    1    7.62646541   -1.01573440    0.77735170   2411.51809771-2170.29815162-2913.07783532     16.73364730   14.82913879   14.52040040
    1    7.21322568   -2.24487679    0.00110833   3872.52217627 2156.50044831 -168.90828904     17.34092043   16.62762981   15.66105069
    8   10.04880795    0.54887575  -10.04339284  -6703.79343962****************************      3.77285286    3.59247866    3.41821855