 BEGIN_INFO
   #
   # This is a XCRYSDEN-Structure-File
   #
   # aimed for Visualization of geometry
   #
   # Launch as: xcrysden --xsf HICOLM.XSF
   #
   #
 END_INFO
 # estrutura final
CRYSTAL
PRIMVEC
      21.00219148       0.00000000       0.00000000
       0.00000000      21.00219148       0.00000000
       0.00000000       0.00000000      21.00219148
PRIMCOORD
  927    1
    8    2.26949522    1.08669766   -0.34142615     -7.65002405   12.52423128   -5.96981157      3.28943600    7.69127887    5.15528168
    1    2.87409312    1.01594931    0.40844230      6.29142132   -0.94160697   11.38894450      2.98333293   10.52254681   -2.18747216
    1    1.79300514    1.92278121   -0.10375518      1.58930749  -10.19519473    0.15884136      6.03656385   -1.24115917    4.62466936
    8    7.53203654    4.42331347   -1.67227997     17.94492400  -27.51342668  -20.22213245      2.62602930    4.24576162    3.48270062
    1    8.26909012    3.92091991   -1.20424458    -14.13527795   12.51338092   -9.34346513     -2.81079178   -2.87683554   11.82531213
    1    7.59301427    3.98036970   -2.58147638     -0.64747025   13.48108631   28.28166055     -5.92831149    2.26995711   -9.62329144
    8    7.90938002    8.65590800    5.56102701      4.16402279  -11.36327905    7.68558175      3.75053280    3.77081017    6.75338898
    1    8.15030522    9.40814310    5.01020260      2.19382548   12.35647262   -7.58268105      1.37313386   -0.88196593    1.44640244
    1    7.02627969    8.92265736    5.89510312     -3.00043393    0.65680123   -5.03510956     10.92517988   12.54527928    5.67952397
    8   -3.23344806    5.21897560    9.25386644     14.67416139  -16.07227646    0.51929701      2.23470012    5.17806289    3.32307586
    1   -3.81551460    5.14074955   10.03793112     -4.68505536    5.16044637    3.55802865      0.90652376   14.91081665    2.03139070
    1   -2.65468462    4.43653344    9.38566097     -5.07016061    7.63314987    1.64103237      6.47921434    4.04183684    1.45277973
    8    9.19262964   10.29077176    8.96373148     11.10422117  -10.29240046    7.90154149      5.12542708    4.01930144    6.14794865
    1    9.43127686   -9.81486966    8.65597859      4.13057098    2.09401360   -5.84833877      5.31315163  -12.98309584   17.11120695
    1    8.24975069   10.41885376    9.12966531    -12.64274617    5.01886737   -2.16353375      7.43470279   12.78397357  -25.83987896
    8    2.50641165   -3.40176566    4.52584144     -8.50852652   -1.23585259   14.12673449      1.64437261    3.34720228    0.40758675
    1    3.27235714   -2.79927975    4.44950817      4.59504766   12.73185931   -0.98840167     22.04229905  -11.76039543    3.40542737
    1    2.89035855   -4.16779990    4.09060053      6.61649268  -11.04324559  -12.05880641      6.51760621   -0.13058776  -14.56812599
    8    1.34729555    8.03084755    4.96711967     10.06446030    6.43507151    7.62114139      3.27381865    4.82034920    6.11915043
    1    0.54405480    8.20539102    4.45025696    -10.25092308    0.14607351   -6.98779818     -2.48894953    6.54029949    4.94185754
    1    1.12770401    8.62063990    5.72251740      1.90265056   -0.81505844   -0.28503072     32.66189071    5.82042268    7.74958620
    8    1.85097720    6.42768238   -7.52605449    -11.78378140    0.73948277   22.14072906      9.14679326    8.36209820    4.06348188
    1    1.79601806    7.40524565   -7.51053542      4.58618597   -0.00244863   -3.37940484      5.31630170    8.24003660    7.41294149
    1    2.36869756    6.23371233   -8.33207157      4.56472876    0.96328561  -10.20994467      6.95892135    6.26520280    0.66991966
    8   -5.30562969   -8.25002178    7.62632686     -4.43410330    0.00157838   -3.98840612      8.68058504    5.69910130    3.57987038
    1   -5.34315769   -7.32281810    7.90871751     -1.08592038    3.14710579    2.85178201      6.24919456   11.03837075   -0.99282439
    1   -4.51914276   -8.55711530    8.11800704      6.52818152   -3.06239827    2.73968183     -3.27503101   11.95882777   -6.12212384
    8   -4.20683181   -0.49510131   -9.22718658      1.41938640   -5.75352092  -18.53546286      6.02230753    5.41301603    6.05113383
    1   -4.28490697    0.19140496   -8.56049789     -1.68707423    9.64857189   12.21639708     18.31050857   20.18322245   10.85396245
    1   -4.48251916   -0.01880855  -10.03403751      0.52419000   -3.60705412    7.28440689     13.70207290   -2.01462305    9.29760045
    8   -0.72213367    2.06860203    2.48263395    -13.98400419  -17.44788208  -24.56580071      3.05475790    4.85218126    7.88998183
    1   -0.09038383    2.50290003    1.85365321      2.06211545    1.67860686    8.36295399      1.34024506    0.59835607   -3.77321459
    1   -1.17895714    1.52621535    1.76178109      8.44355301    9.78487617   23.64982529     16.77581761   -6.93767348    5.40987609
    8    4.05720380   -8.15487253   -7.22167588     -2.17802412    6.46523374   -0.69654773      3.84540262    4.83439826    5.38855646
    1    4.94412549   -8.47493384   -7.51545057      1.39957259    3.77757985   -3.76087790      5.95421938   -5.85561668    7.70747798
    1    3.77704183   -8.92975355   -6.71777115     -1.04973693   -5.82635706    0.96679738     -1.16641738   -3.53835581    3.77399074
    8    9.66916721    6.70971373    2.26725432     -4.06515080   24.45748733   -1.53881625      3.24451726    8.53111504    8.13401308
    1    9.82869767    5.82207990    1.94818825      3.41371875  -20.15849010   -1.71327172      9.63404269   10.08716888   -1.30831837
    1    9.25202095    6.52805966    3.13744862      1.05666790   -3.17588824    1.56954977    -12.81140147    6.15710287   -9.66754898
    8   -4.14710811   10.22705233    1.47132970     22.49246133    8.52940096   17.17139458      6.53117672    2.98846519    7.58102674
    1   -4.67573655    9.57235395    1.01199093    -13.79965604  -10.03607221  -11.37000981     -4.13070928   -6.60249726   23.37183304
    1   -4.65045525   -9.96029560    1.30659486     -7.58273426    5.83544656   -3.25813231      6.08830300    0.29104748   13.28620201
    8   -4.35280692    2.97516715    4.35568177      4.30378182   -3.79819985   10.49942690      3.70933771    4.74516507    4.20394037
    1   -3.78579457    2.90060853    5.17604270     -3.12133137    1.57923469  -16.82499322     -0.36647965   -0.17332358   12.67905887
    1   -3.71643836    3.20015946    3.65674110      1.91520826   -0.00434079    5.92036659      6.06381509   -4.20654847   11.74519885
    8    1.19655441   -1.33595881   -1.00693170      8.34526768    8.13091172    6.22908041      6.84387265    5.13875974    6.20007755
    1    1.49938673   -0.41187874   -0.81957890     -0.01637804   -5.75505860    1.83266291      9.06148266   -3.15413173   19.59132570
    1    1.20616833   -1.32206048   -1.98764201     -3.33892376   -5.07129895   -3.59792510      0.68525368    0.37033033   -3.47387839
    8    0.40934493    0.07441455   -9.73394063    -16.25854230    6.75602395   17.15422314      6.67792468    7.54788958    3.82916443
    1   -0.31956685   -0.57044474   -9.49765037     13.54936206   16.07687215    0.97190451     -1.16325733    1.61241491   16.86624599
    1    0.22151841    0.84139346   -9.10076185      2.32872811  -20.47078006  -15.94124329     20.25741420   12.87085242    3.22276421
    8    4.32147338   -1.56059496  -10.45677750      6.29856189   19.34298938    5.78101326      6.56215396    3.15310349    5.30875714
    1    4.40901625   -1.86241366    9.63154879      1.96173450   -8.19141451  -14.98125867     -2.54168258    0.64503512    7.69571015
    1    3.93216304   -2.33601561  -10.03742031     -7.49850218  -14.61375446    3.63161459     -2.11695735   -3.75265787    1.32807838
    8   -3.05827906   -9.29086276    8.66172470     -6.89652864   -0.87736832    2.90191257      5.28331404    7.32125567    4.90756916
    1   -2.25726533   -8.84624694    8.99010576      9.18686539    3.99838046   -2.03980219     -0.27497871    2.04135601   11.72731956
    1   -2.70235320  -10.13185700    8.31053569      1.02139008   -2.44486347   -2.17088524      2.86758146    5.29914665   16.71744255
    8   -6.27808896   -2.43130099   -4.54557130     -1.81968711    6.80805224    9.49189224      2.73756254    3.08829317    5.74431556
    1   -6.20006130   -3.01867117   -5.30348000     -1.88168401  -10.26934334  -11.27342883     10.09188610    9.55352389   17.39855654
    1   -5.53447860   -2.79076330   -4.02234036      3.21753478    3.56338019    4.55238151     -3.75990877    9.84060008   17.31078892
    8    5.83777109    9.61970980   -7.89787327     -2.88020796   -4.40817957    4.28270417      8.07004321    3.05485000    3.09565491
    1    5.15878880    9.78033928   -7.22392110     -7.41067827   -8.70498811    3.30100106     10.41302763   -2.23483994   11.69496372
    1    6.13646376  -10.45248732   -7.93987395      8.85162292    4.71471751  -10.57658363      3.80229854    4.61188745    2.38961607
    8   -0.10746960    2.28263208   -8.03666210     25.42158616    6.04009812   28.05701931      6.24049697    8.18941193    4.65601272
    1   -0.86251598    2.64741409   -7.51617025      2.66272095   -5.60257576   -0.31792334      7.26432399   13.18301654   -3.96437273
    1    0.65482535    2.39943477   -7.36688586    -27.28501723   -7.17918503  -27.90925149     15.02050384   -4.03092418  -11.30908688
    8    5.45033859   -2.78488099    0.33392569     -8.28278930    7.02527329  -17.53441920      6.44561343    6.62378789    7.80764663
    1    5.74731504   -2.28667105   -0.46204032      0.59401361   -2.87198660    9.59098797     -9.65431768    7.61168737    6.98511509
    1    4.52525894   -3.01074538    0.05845603      7.90127894   -1.95912651   10.55681918     17.01447101   10.62563572    2.64323196
    8   -7.70221514    0.31305644    1.97276200     15.77492690    0.31846759   22.88988211      4.18146565    1.55438544    6.94972297
    1   -7.35602491    0.16028345    1.08267927      2.63620328   -2.08821592  -10.20763630     22.64226293   14.28666671   -4.28074540
    1   -6.88521526    0.18012546    2.53110146    -18.03313286    2.75990849  -10.09223944     -3.48423866    6.86520524    2.74258023
    8    0.23281375   -7.37557558   -5.02354808      4.18029480   -9.15599922   32.94826329      0.88725768    3.81390380    4.26267356
    1    0.04693385   -7.49531197   -5.93451250    -10.52449798    3.42249654  -33.61619873     11.45769152    7.31774342   16.27805476
    1   -0.53034984   -7.87141944   -4.64359665      1.23438994    5.26028124   -0.08209096      7.20998115   -2.76005883    2.18194284
    8   -6.27008009    0.70325908    9.76384559     -9.97565071  -14.52652230   12.63807788      7.02355633    5.24200957    4.79932946
    1   -6.37940484   -0.02770283    9.10591824     -3.74707291   -0.13658505    2.72764673     12.87786069   17.82189235    5.72821494
    1   -5.68300084    1.26926460    9.26084224     13.56282968   15.18798589  -10.08536334      8.89980214    7.44981636   -1.19014227
    8   -3.14143223    4.40579101    1.52985594     17.89471536    6.42034932   24.92051810      3.79383908    4.75868568    4.48690372
    1   -2.41624582    4.69808097    0.91658539     -7.17594815   -5.18066527    7.02448334     -1.04239954   -8.88215244    3.51505095
    1   -2.69973451    4.53516841    2.43079722     -9.77819900   -3.46544259  -30.90327314      6.48511527   -4.33102737   -2.53757055
    8    9.51564685   -7.85718746   -4.27795613     17.05927082   20.93545310   -1.31048250      8.48900872    6.38646169    7.31144010
    1    9.84862188   -7.14489906   -3.66565859      0.28565966   -6.00851402  -12.83722926      1.34699810  -10.87361419    1.91180289
    1    8.88795487   -8.26696652   -3.67531758    -17.98956522  -15.19204213   11.56749152      4.97843632   -0.76335431    2.65116969
    8    0.60300667    4.18956242    8.74349080      0.31669291  -11.80135348    0.56539074      5.52211641    6.37145526    6.85476501
    1    1.35363652    3.61955690    9.03463077     -0.49039318   10.75110218   -0.82930763      6.21414520   -2.08636671   11.03363258
    1   -0.06234770    3.91513521    9.42087763     -0.72126858    3.11806050   -1.72999091      4.57773949   15.84043803   -0.40313187
    8   -3.67033114    6.59016301    7.06341423      6.85398546    3.82890489   -9.39946615      2.07678681    4.48004366    0.79272281
    1   -4.64212099    6.59232376    6.99851744     -5.33922317   -2.26702860    5.53221487      6.48495434    9.94247786   10.14147178
    1   -3.49377175    6.02010586    7.86216950     -5.92440118    5.54655252   -3.08956187      4.04642832    6.26774041    4.61325551
    8   -5.45549965   -4.27293804   -6.44028423     34.56889631   15.90700503   -2.43546151      4.99448952    4.60436946    4.93289959
    1   -4.48970862   -3.96136347   -6.28905921    -36.89208494  -15.48202456   -8.22413074      6.10447802   -8.93776263    8.66938399
    1   -5.58686491   -4.07186313   -7.39348081      3.75704988    0.67831038    9.96768495     19.90145165    0.46070160    5.53772451
    8   10.17230672    0.85520272   -9.64834465     40.32798633    9.33324855  -13.00530858      6.35714091    5.41881904    4.98850709
    1   -9.90408837    1.19056731   -9.88164937    -27.58873233  -14.27823960    7.35142549      2.50481225  -11.97956158    7.34892382
    1    9.87173558    1.64616817   -9.17337021     -9.11287241    6.45364296    7.07158249      8.24299662   14.49266656    9.36458669
    8   -5.43140451    3.36972760    0.53674115      1.79198524   -0.88588552    0.03132494      6.34837441    7.27062194    4.58486197
    1   -4.65115716    3.77218355    0.97529817      3.17266827    1.92562744    1.07191119      1.54100672   17.95477723    4.54366907
    1   -4.98705952    2.94299455   -0.22317788     -3.02923618    1.52807635   -0.99635121     23.09821558    8.05011603   -3.02334537
    8   -6.16786248    3.22211769   -8.62541018      2.71395884   17.38750151   14.12596824      6.75153071    8.09152333    6.06244422
    1   -5.72030192    3.88351756   -9.20395302     -0.27213573   -6.10717052    2.57029949      3.26784119   17.23396078    8.64698482
    1   -6.34841681    3.81474872   -7.84249699      0.29684559   -9.72149949   -8.96056004     13.59832808    2.54975715    4.16657256
    8   -2.95914201    6.74950446    4.40863337      4.38370004   -2.46604303   -1.13913633      7.35248456    5.63667970    4.49078508
    1   -3.25288964    6.66028587    5.33442506     -0.31235657    0.45283452    9.28621492     15.24382694    6.47130818    8.69597958
    1   -2.35469497    5.98553888    4.33554999     -4.61688689   -1.02034060   -4.15394506     20.37560085   19.94837161    1.79973633
    8    9.52909207    2.98850307   -0.50519698    -35.28266778  -11.95952610   -1.14859224     10.26505977    5.39581703    7.40084857
    1   10.40413487    3.15610905   -0.85721989     23.12419244    9.94357370    1.37975047     -2.36051577   11.87515304    0.47078484
    1    9.57352060    3.26481191    0.43085403     13.38740101    7.06554361    1.76920177      3.45232051    3.27769460  -27.48119385
    8   -8.23362349    6.31521539   10.28319072     -5.11903903  -18.03819977   -5.47297644      3.81833643    5.51089350    4.08356264
    1   -8.08503611    7.21044485    9.91202470      1.80120824    3.66394323    5.22197690     23.53768002    4.84052176   -6.59216752
    1   -7.67001093    6.29995963   -9.92641093     -0.15577567   13.61744215   -3.48253050     -0.15789419   12.75993250   12.90599035
    8    9.88249998    8.13160549    7.43280007     19.06071938  -28.21225459    2.72956087      4.43736128    5.88250883    2.78386142
    1    9.19569891    8.14392970    6.74976195     -9.01290150   14.01239517   -1.63154219      0.44204000   20.09298512   19.74904886
    1    9.77534879    8.94725890    7.93932170    -10.42275505   14.11073394    0.35256362     13.00478650    2.02473345   13.80199675
    8   -0.67523045   -3.76385202    2.61634148     -2.03990750    3.13206276    1.39961718      6.30261841    5.07201147    3.45406482
    1   -0.83228728   -3.05761495    1.93899200      5.32711283   -3.85702259    3.01154831     -5.98969076   -2.51638462   -3.39480665
    1   -0.40574561   -3.22645670    3.39069501     -1.02502568    2.44619120   -4.03494901      8.02523556    2.91253332    5.36478839
    8   -6.55974797    9.46178108    4.69369963     15.74554980  -27.52588556   -9.27229837      6.75016200    4.77468215    5.48036287
    1   -7.26058006    9.02992640    5.20734671     -4.74149294   -2.75546617    0.84274891      5.28262391    9.46974300   10.66236703
    1   -6.09888860    8.65283811    4.29780008    -12.64136100   21.59582043    7.46066852     21.66680265    4.56685359    6.24135091
    8   -2.17690719   -5.34816821    9.48501393    -12.43341806    8.60459540  -11.03841158      8.18192884    7.85270510    5.24894010
    1   -1.72733787   -4.68099712   10.04846746      4.67694894   -7.83249530    6.54014841     -3.81912757   -1.67911357    3.23774024
    1   -1.75390060   -6.19699386    9.69114064      7.97676709   -2.45468441    6.91930647     16.35822484    7.98622656   10.15331429
    8    0.23633389   -6.50320050    3.27534083     -1.97691825    9.58764951  -15.13459363      8.40577588    9.16291203    6.89857729
    1    0.38042059   -6.54892605    4.24379237      0.11893988    5.67339087    5.04533620     20.80681112    8.12255099   -5.24914400
    1   -0.02156730   -5.56104539    3.09767362      2.52347778  -11.57554099    9.10837292      0.28930685   23.68982529    9.23281246
    8    3.04029717   -0.42217811    7.55473423     19.97715000  -12.42806794    4.84558482      7.63068428    8.29979690    5.12735612
    1    3.53106404   -1.29266138    7.60557547    -11.25264705   14.85006448   -1.10141160     -5.37066941    7.77588116   -1.74088007
    1    3.78265302    0.16173022    7.83847394     -8.16070607   -3.39961224   -2.76522714     11.08893634   15.48033821    7.27632997
    8    7.42392779   -0.20130201   -6.50680168     -4.85501164   -2.77162567   17.85775608      5.91787741    5.39887591    0.94827369
    1    7.13727504   -0.30368435   -7.41886138     -3.92326030   -5.01330101  -15.98851193     11.50148845    5.53573874   -1.30842328
    1    6.68191160   -0.64770816   -6.03267683      3.32511196    2.87950052   -4.89075309     18.33775527    4.28884501    1.94760967
    8    8.36918313    6.22782684    4.57504245    -12.25894535   30.99363771  -13.40880927      6.18374455    5.49099500    7.84463854
    1    8.20542414    7.18694651    4.89178260      5.56224996  -32.83948980    0.66789093     -3.70516139    9.19076598   -3.62809678
    1    8.57345743    5.72828855    5.36887376      4.26783298   -1.60310866   13.79775835     10.89291337   15.68630950    7.79507344
    8   -9.67167298   -5.15594309    9.58967388     -3.99195264   22.90626273  -23.43265081      4.95504276    2.35352904    5.03185027
    1   -9.53075696   -5.13388178    8.60224514     -1.49502744    0.75622361   25.87593033     12.36966463    2.92929486   13.01446065
    1   -9.78497673   -4.17333062    9.78786479      5.60641089  -22.10057881   -3.68902179      1.35927110   14.99861646   -0.86274908
    8   -8.76263652    2.99643163   -6.56098591     -4.26627208   12.69479378   -4.16774098      7.74983409    6.71385756    5.13502695
    1   -9.31553251    3.72948629   -6.95658350      6.81768225   -9.35714379    5.76365185     12.69169690    2.18811614   17.72108242
    1   -7.94943526    3.50905253   -6.36007295     -4.04097977   -1.05962912   -2.57087371      5.73202224   17.40315339   -8.51157799
    8    3.83948193   10.31539958   -5.99258072    -11.70459538   13.48169063   -8.75157789      5.97431856    3.65755089    7.43136068
    1    3.28035576  -10.12971431   -5.40114892      4.03349075   -0.89547396    2.10748493     -2.01695174    6.86583685   -4.13940082
    1    4.00728585    9.57909493   -5.37489069      4.86165867   -7.96054295    8.78991362      9.37492282    4.73572237   10.14505542
    8    1.46356757   -4.24769048    9.66694945    -12.98563298    9.40782893   14.32040596      3.56240213   10.98478225   10.23936711
    1    0.64047263   -3.94123782   10.14208973     10.37110436   -7.90834645   -9.78880053     13.49884596    1.14010624   13.01435641
    1    2.12910341   -3.97085596   10.33133844      0.65827423   -3.97745061   -5.17530364     16.69190880    4.97244038   23.12789891
    8    8.35692755   -7.47484761    4.48218710      0.82532163   -2.36737550   12.03709543      3.21058573    7.77331804    3.48394912
    1    7.73891017   -7.80742076    5.18666676      2.21304626    0.72439558   -8.51258280     17.63684253    0.69036797   11.82128092
    1    9.08973726   -7.14526597    5.06777957     -3.11081799    1.76039516  -12.02041003     12.56872243   11.71804793   19.16386258
    8   -2.91848924   -3.37198905   -5.68946384     -9.03101869  -36.23707256   -5.36712069      5.11707126    5.33621846    2.94698418
    1   -2.69526963   -2.45636431   -5.69584281      6.07588150   31.61856763   -1.53531588      0.29990043   10.30882950    6.60552327
    1   -3.26720282   -3.49552374   -4.77831865      1.97069097    4.30049658    2.31319898     -3.29445087    6.41165961   17.43434465
    8   -1.95545627   -8.79564447   -4.05711861     23.28949245    6.30294977   25.60382228      3.72816473    1.93602481    7.85198647
    1   -2.62483460   -8.99219778   -4.70354680    -22.99445177    0.48178976  -16.57553683     -0.47069931   -6.24357398   15.97072181
    1   -2.45757524   -8.32979315   -3.34297389     -2.12990315   -1.66032742   -8.70788034     -1.38299344   11.67173722   -1.63666029
    8    0.60069999    6.67238651   -2.86873363    -28.94416078   -2.72738814   10.37067907      6.68677640    4.97263204    5.32293610
    1   -0.30917776    6.92890769   -2.53836758     14.01303668   -0.10569530   -4.00278588      8.44477665    9.55131156   13.03792495
    1    0.44980368    5.70050435   -2.83384031     14.99233713    3.05205969   -3.19839598     -2.81648721  -11.71848975   -0.56832639
    8   -2.75657810    3.50754846   -3.60153983      2.93409255   -6.24404978   -1.76442118      6.10134236    7.60394396    7.08744218
    1   -2.57782828    3.34781958   -4.54751761     -0.56493087    2.48523361    1.24700676    -12.66709139   13.35042466   14.57120674
    1   -3.08645918    4.43637332   -3.60885825      4.35331637   -1.61202720   -5.51797131     17.23260439   -2.37931750   10.78817181
    8   -2.42038707  -10.14905536    3.56007394    -10.22878503    7.05253301   -3.75601011      8.98364489    7.01570684    2.02832661
    1   -3.06579808  -10.37450007    2.84421898      1.82578301    2.48331120    6.72085895      0.79731093   10.52993054    6.05333500
    1   -2.99566945   -9.65160681    4.20066312      5.50985082   -5.36327616   -6.67692496    -12.37661362    7.06128181   15.25153442
    8    4.68035814   -9.80547150    1.27514376     -7.19314950   -0.87563853    5.82374419      5.79404762    4.75532707    6.19851927
    1    3.96895332   -9.83741987    1.95264229      1.58140593    0.80881944   -2.75475093     -7.04791907  -10.49423235    4.13714483
    1    4.16605011  -10.07369053    0.48232741      0.92473739   -0.67895294   -2.75531952      9.68710869    3.50523123    2.87506727
    8    6.57029676   -0.56240003    6.15131827     -5.08390146   13.35361671    3.16251179      5.49800613    6.14990695    5.71573704
    1    6.07052014   -0.17162163    6.91661594      7.71665176   -6.28346550   -7.61757622      9.96624900   10.22058793    8.90604613
    1    7.05082280    0.25295137    5.85421931     -1.93378571   -9.80539795    6.85262369      7.66124778    0.53678455    6.90966366
    8    2.25355762    2.22095622   -6.34505341    -13.25207366    8.12697894   13.11916756      3.76937779    4.61175777    5.19527093
    1    2.99569666    1.98354356   -6.92666400      7.05166224   -4.34588946   -1.78927874     19.45651900   -3.66348667    4.57408057
    1    2.43195610    1.66259621   -5.53863089      0.33959828    1.11372456  -15.31308304      5.99700994  -15.57139108    3.27182253
    8    4.15013739  -10.42313593    9.41902014      0.52685613   25.22404149   -9.01688227      4.52946932    2.02355899    6.89570994
    1    4.47493721    9.82220198    9.93034893     -5.87197869  -17.46571249    3.30570278      5.20757436   10.61742951    8.18744317
    1    3.23440230   10.32189518    9.16985729      2.64107582  -11.73106524    4.27961242      0.38818327   -9.91414836   20.95168541
    8   -6.62797415   -1.14987724    7.88706797    -10.15049291  -20.66924563    6.72665870      7.49283649    7.53872390    9.34947752
    1   -6.53502556   -2.14183399    7.80413653     -3.00840692   13.91785106    0.42980887     11.76482164   17.31987304    7.69396779
    1   -5.95529642   -0.85673203    7.24408896      8.38469725    3.58071122   -5.66001127      5.23282493    7.64627465   -7.59884221
    8    3.38686536   -3.84072972   -9.32495116      2.80870447    3.51685862   12.05291160      7.24077263    6.44857847    8.45925554
    1    3.10493387   -4.74879096   -9.08018189      0.31201479   -4.64769764   -7.86616051      9.24417701   15.66848389    7.49461039
    1    3.46517949   -3.47455068   -8.40538592     -3.21633334   -3.35603016   -5.25052751    -12.30470261    9.70626029    7.47423904
    8    3.35113159    6.40813105    0.08930659     15.83711282   11.68156640    4.62940279      6.83046559    6.05072496    4.04481395
    1    2.77365790    6.01627525    0.75344953    -11.44036317   -4.93925808   10.37623168      7.18503018    5.76439281    5.81969337
    1    4.08264792    6.73429310    0.68576847     -7.96090703   -4.80512143   -8.79330899      6.04289585    4.05025419    9.58929604
    8   -2.21540220    9.61830162   -9.74419711    -27.79911629    3.45783254    3.40024345      4.99920382    7.50008999    6.55250973
    1   -1.32443855    9.92273125   -9.56262740     20.91163730   -0.50047913   -2.49241089      5.32259258   18.89121268    7.29545284
    1   -2.03327991    8.84277872  -10.32335465      1.79991794   -0.11992722    2.82545193      1.53371303    6.27134136    3.04766734
    8   -2.38762516    2.99263312   -6.63606661     -0.64120413   -8.50325460    2.56093543      6.79831475    5.90023154    6.67776549
    1   -2.70302359    3.89695946   -6.81794614     -8.98808010    0.17927024   -1.97120579      2.71753752    0.16739928    3.05814635
    1   -3.16775373    2.41636040   -6.84648314      5.14647829   11.33617257    1.02084256      2.16617703    6.76370894   -2.46253521
    8    3.01605514    0.76900145  -10.13595942     18.32052887   -2.87074715  -11.21161794      6.19539110    5.51236501    4.59042426
    1    3.49705774   -0.04735378  -10.45021937     -8.46679383    9.28695398    7.59064727     11.91173154    6.65417280   -1.97949435
    1    2.11345862    0.43720193  -10.02222673    -13.41593917   -5.15429193    2.40178633      9.30725115   10.22303980   -0.02369060
    8    1.74417059    4.76272489   -5.34263206      2.03277861   -2.72199754   -7.58260805      2.81841693    4.11993056    6.71662600
    1    1.92861973    3.89779677   -5.77919754     -1.81773584    3.24680232    0.11224146     -4.21627356    1.37985511    9.77737801
    1    1.68558212    5.36740517   -6.12215832     -0.67642914   -1.88321317    0.90320940     17.67560388  -16.19021207    9.71064949
    8   -5.37301120   -5.57652637   -9.40269243     -6.90190537   14.17951806    8.88356699      7.70971080    5.82542585    6.81489266
    1   -6.33655154   -5.70104825   -9.21069581      2.23269592  -10.47956033   -6.85481486      1.98014429   20.12026245   -1.46506032
    1   -5.40517827   -4.58643026   -9.34080519     10.00579671   -5.55727856   -3.26550651      5.76862900    0.68525843   10.96905804
    8    8.61514664   -0.50552018    2.73411993     -5.09496417   20.76864424  -14.86041612      6.22193285    5.57057343    7.10525536
    1    7.67766912   -0.55073300    2.39111663      8.13755802   -4.22928546    7.87841617     16.80953122    9.36581528    8.06672203
    1    8.71873553   -1.35361600    3.16559543     -1.49935194  -15.82748899    6.61947790     -3.47927480    3.77997091   -6.86529151
    8    5.13377043    8.33595309  -10.40445663     13.62245754   -5.99163715    9.48370621      8.79172473    3.41697449    2.70642786
    1    5.42911570    8.76765062   -9.56868017     -4.09203631   -4.07392708   -3.83375000      8.00434787    4.19165302   11.12272744
    1    5.35295440    7.38988918  -10.20525520     -6.35892837   11.19107109    2.39880110      8.11739776   12.76827754    9.89768475
    8   -5.21528599   -5.67914034    1.25115797     -4.12002789    6.44456433   18.32030753      6.83594653    6.42302187    7.72590769
    1   -5.72193514   -5.03449422    1.82096135      8.17094712   -9.85369865  -11.55976699     22.56295466   16.34301142   11.44787216
    1   -4.33345557   -5.62742722    1.72604076     -8.48499271    3.02678672  -12.71417281      5.56168962    2.73954604    7.71555913
    8  -10.21936935    9.40975204   -9.98508881     -5.81840779    0.76613459   -7.87797326      5.22614542   11.46325341    3.42256946
    1   10.12364000    9.72326944   10.34543694      8.21252388   -0.14226295    4.24966534      3.12836989   15.31276582    4.16134858
    1   -9.42355426    9.31976012   10.44861526     -0.56684686   -1.84170174    1.92235393      1.15639943    0.89683433    5.38329816
    8    5.33630759    3.23334686   -0.65996523      8.11728581   -6.80567944    5.34882380      6.10751441    1.98027301    6.77429829
    1    5.61101516    3.04994596    0.27825953     -0.79166706    4.53350523  -11.51135197      0.57617659    3.70991611   -5.27463387
    1    6.13804180    3.69384503   -1.02330201     -4.29556066   -1.64834987    6.53906542     13.19133377    6.39084673   -1.99841120
    8   10.48577081   -6.61641475    5.82183886    -11.61766199   16.91326285   30.52528730      5.55816085    4.37283616    9.23246431