 BEGIN_INFO
   #
   # This is a XCRYSDEN-Structure-File
   #
   # aimed for Visualization of geometry
   #
   # Launch as: xcrysden --xsf HICOLM.XSF
   #
   #
 END_INFO
 # estrutura final
CRYSTAL
PRIMVEC
      21.00657086       0.00000000       0.00000000
       0.00000000      21.00657086       0.00000000
       0.00000000       0.00000000      21.00657086
PRIMCOORD
  927    1
    8    1.22961071   -0.06086151   -1.33844437     -4.89266888   -7.07933539   -0.21874566      7.79474767    6.82441034    7.27986976
    1    1.79046460   -0.09733914   -0.52047952      0.18825466    2.50863089   -7.05259452    -13.72607288    7.97313539   -8.27692287
    1    0.58295851    0.63394568   -1.10631647      0.22918046    4.46883368    1.27541959      7.55340477    6.80156864   -3.98206354
    8    6.69701342    3.29590489   -2.83365092     -4.42055102   -3.23403378   -2.21795110      4.13599343    9.68727379    7.05834458
    1    7.41760068    2.84500683   -2.35184399     -1.46707539    0.18018243    7.95036786     10.41344998    2.47535976    9.45022573
    1    6.76123419    2.78314481   -3.65822041     -0.16884585    1.15442339   -6.73817054     12.61537545  -14.81842938   -8.97501182
    8    6.96584477    7.71415698    4.49010814      7.66525663   12.20329778  -12.16470800      4.26302038    2.82958704    4.43055091
    1    7.12845755    8.42350954    3.79853419     -2.37382592  -13.93054596   13.40368155      7.14248570    6.78875414    8.79083488
    1    6.02990937    7.90505013    4.72685902     -0.59798316    1.00967235   -1.22696772     -1.63428397    5.62905732   -2.09645911
    8   -4.25243769    4.16036243    8.40336406     -9.80633715   -3.18284794   15.21940468      5.57422830    5.47700431    6.00861110
    1   -4.92627920    4.01656686    9.13499627     13.44416676    5.92889699  -12.13722355     -1.95557189   13.55732869    6.17274376
    1   -3.72135694    3.35235082    8.45281469     -0.68087461   -0.73004234    1.77379193      7.91103745    2.80526314   15.25601882
    8    8.19014563    9.36702797    8.01802847      4.53107667    1.16433712   -3.89912456      5.89763402    4.36309086   10.60516138
    1    8.47815523   10.24511997    7.69806331     -0.66177646   -1.51722437   -1.40596903      9.11395304   18.92495527   12.93811418
    1    7.22340361    9.50993647    8.05159095     -3.33934076    1.74771600   -0.33328792     10.78696741    6.24539178   -2.94707971
    8    1.92983296   -4.25820389    3.59731320    -12.23015231   -3.96486983    1.47689270      4.68483909    3.55690344    6.53505780
    1    2.67043153   -3.63156445    3.63939599      8.78153989   13.33585561    1.34664549      6.81951975    7.95794075   -6.33646009
    1    2.32786831   -4.90858570    2.98100102      0.02570716   -4.67547033   -0.30357845     14.34112912    8.12066185   19.28509992
    8    0.32446100    7.17201980    3.83859522      7.04546880  -12.45284364   -2.75654686      3.98362112    5.69636441    6.53154418
    1   -0.50431759    7.10774852    3.33052225     -6.53585717    6.70604043    2.05541415     11.30975257   10.31956544   15.81853987
    1    0.05286615    7.73004481    4.60269803     -3.89923768    0.35970707   -1.19507877     12.61772413    3.56398607   12.80242380
    8    0.67549850    5.08433870   -8.72855798     -7.73088938   -6.41590796   20.45043171      5.12686711    4.74020973    4.46741023
    1    0.81786572    6.04592698   -8.68316943      1.14302859    5.44294975   -1.98304000      0.06175605   13.18674249   15.50872171
    1    1.18155490    4.81122986   -9.50894405      8.74789471    1.47183359  -11.63648081     17.82412706   17.92166772   11.21034777
    8   -6.19906178   -9.44663954    6.39527297    -23.35745751   -5.96233547  -17.43672553      5.08189299    4.65109666   11.58687283
    1   -6.24481895   -8.55797457    6.77520910      3.60782258    9.39841990    7.06788595     11.20401757    1.23970081    1.13446312
    1   -5.51292825   -9.87817158    6.91655512     19.10834817   -1.52265426    8.55448998      2.79480975    2.23839493    7.88762933
    8   -5.35844853   -1.74199739  -10.30469526      6.10942455  -22.77584251   -2.73033366      5.80309915    8.32213727    3.91079960
    1   -5.45523799   -1.03441704   -9.65108836     -0.90544132   12.92697435    6.58332063     11.01489686    1.11758094   -6.53221801
    1   -5.74715965   -1.35149127    9.91426281     -9.16494535    7.49346645   -7.74792582      5.07067972   -1.10023428    2.18934434
    8   -1.65666183    0.92761713    1.50250455     -7.19368290    2.24280224    0.33785979      7.46845853    7.57715843    2.14599418
    1   -1.25780819    1.35017603    0.71730010     10.31065792    3.40084176    0.83634163     14.10043834    6.32135791   -0.36240077
    1   -2.29536190    0.38807750    1.00521713     -1.48522776   -5.41832530   -0.45421236     -1.12451903   -3.36891250   -2.52059969
    8    3.13935146   -9.10624537   -8.40585837      0.32816609  -21.53911603    5.59651634      3.32448857    9.88621464    4.56476830
    1    4.00411664   -9.45047734   -8.73892263      3.07938501    7.83005502   -0.67692319    -13.03714476   11.77908722   -0.27767134
    1    2.84432216   -9.94309553   -7.97786085     -4.07472560   12.15562622    0.35239844     30.60601533   21.14700404    9.88848374
    8    8.36483975    5.68215132    0.75362361     -4.77141439   13.79462554    5.25971230      3.48534152    2.71012339    9.52639687
    1    8.66267955    4.79705691    0.54312287      1.98399572  -16.53168913   -2.45939301      9.72418240   -0.53026185   22.31643728
    1    7.85138554    5.48655262    1.57061378      4.67605205    2.67053622   -0.52191035     -8.22850635   -4.26369314   13.81052901
    8   -4.95752567    9.33802349    0.37662500      5.45773105    4.01886433    2.25207214      3.48257074    3.99695154    0.94990771
    1   -5.62309982    8.73969282   -0.02840644     -5.20964072    8.05725886   -0.32950808     -0.24397656   -0.17142112   13.27243242
    1   -5.37887232   10.23062460    0.28317939     -6.41385772  -11.10029123   -2.74336050      3.77559234   -6.12399527   21.07948018
    8   -5.30381566    1.76736122    3.35008696    -15.10484498    1.49312766  -18.97840497      6.19379740    4.05848241    6.24675336
    1   -4.69409802    1.77748448    4.08396038     13.13280141   -0.70318420   21.77188462      1.18750267   12.12664980   17.79545907
    1   -4.71442761    2.04895937    2.63860838     -0.46933682    0.75195116   -3.93464615      4.52559040   13.29444672    8.44577257
    8    0.07053858   -2.56494186   -2.04480817     -3.87730851   -8.74403968   16.82039845      5.35777759    4.48025421    6.03345645
    1    0.47590479   -1.68960425   -1.87173816      1.54340190    2.53927679   -7.18044192      0.75807676    0.99741717   14.31917547
    1    0.15251513   -2.69832377   -3.01185272      5.09920879    9.09318800   -3.14786196     -4.86029752    0.41375856    3.57006978
    8   -0.55760176   -1.11413147   10.32681851      5.46836038    5.84092907    0.85040827      5.64490929    5.77273713    6.93087315
    1   -1.25403659   -1.78209307   10.48558839     -4.31977086    1.92197315    3.16986385      7.60575239   19.35820740    8.25013333
    1   -0.84540607   -0.40453831  -10.04388575     -0.54155159   -7.24826752   -6.42567416      9.03556690   20.21140425   -8.26058003
    8    3.25147300   -2.80597816    9.37654977     -0.34912486    6.43617769   13.50726260      6.12574548    7.40546216    6.41475036
    1    3.36304311   -3.04026185    8.44365295      2.14573463   -6.44206780  -13.05503337     11.91458539   -1.57713946    2.04893481
    1    2.96540227   -3.66452136    9.73786080     -4.46789270   -5.99763694   -0.08685276     -0.43145504    2.93215025   -7.33508252
    8   -4.03976117   10.44147021    7.47392802     -2.40372850    9.78502488    7.13257073      4.22715593    8.66840130    5.61603084
    1   -3.19128682  -10.10344259    7.66174483     -1.46350947    1.12558588    3.06587398      9.93360324    4.78916173   14.77387335
    1   -3.71647748    9.58014387    7.17453712      3.68435585  -12.55686314   -5.18322078     -5.63896579    8.71730176    7.62341870
    8   -7.33078329   -3.39497256   -5.47353796    -14.57685392    1.99101013  -24.72805548      7.42881789    6.29168661    3.05777537
    1   -7.22095644   -3.91852423   -6.31139284     -2.94879921    3.21473838   18.01585007     18.09002769   14.78017635    5.73182878
    1   -6.62992547   -3.77508955   -4.93866928     17.08041238   -6.27584382    4.39952077    -14.98955360   21.64327417   -4.11200287
    8    4.57444772    8.60377021   -9.20023316      4.33112337    5.31474583   -1.25553493      4.53023922    1.36864277    8.81657904
    1    3.97013152    8.76501383   -8.46864488     -5.94335504   -0.46134491    5.36712974      0.25017470   18.23594142    9.86143951
    1    5.00417558    9.50393792   -9.25536815     -2.32567757   -8.26994568   -0.57605740     14.00551027    0.62315710    6.72860362
    8   -1.34726297    0.78931120   -8.93763254     -9.74664966   12.22268274   25.41011346      5.55301111    6.40751779    7.88924886
    1   -2.02540772    1.10036878   -8.25682182     22.58243971   -7.33873884  -22.98673470      9.93640052   -1.77537877    1.15299482
    1   -0.47896603    0.91017772   -8.45419314    -14.54798760   -0.90886507   -2.98942456     15.47741337   21.63495031   -1.67715915
    8    4.51174016   -4.01907017   -0.80916858    -18.35914819   -5.84284916    6.22303703      4.96027826    4.09151705    5.64011622
    1    4.63919131   -3.33089603   -1.47661337      7.16282270    5.40558520  -10.95960527      4.05772921    3.30269548    6.49241031
    1    3.55643172   -4.25051600   -0.99176091     12.45859629   -0.10175202    4.68831398      1.90366356    2.49092835    5.68081199
    8   -9.00945075   -0.60184616    1.02413542      6.82628281    3.78660813    0.99510514      5.96862799    6.30743195    1.67919654
    1   -8.52093789   -0.80702565    0.20105775     -4.00951035   -2.78097896   -2.27882171      1.12126921    3.52077811    8.25334744
    1   -8.26941191   -0.60934069    1.66051307     -2.30684766   -2.44847405    2.44376100     18.75393271    1.97083879    5.68357781
    8   -1.18723787   -8.14089311   -6.13346133     24.09797972   18.74983327  -35.18846118      7.37977646    6.31011881    6.93500709
    1   -1.59721508   -8.09141624   -7.04604627      7.46817686    0.70976595   17.31933759      6.90002591    6.29649185    5.83322666
    1   -1.90309531   -8.50230444   -5.63532130    -25.17259473  -18.80316621   13.28732494     -0.97219086    5.35588192    5.05986575
    8   -7.08127277   -0.69156311    8.72611708      7.12788215    0.59071151  -28.37096369      3.52354157    8.05283532    7.03994841
    1   -7.31541601   -1.30420166    7.97994117     -4.70087594    0.65452208   15.29343718     -2.34186146    8.54783368   -3.65467437
    1   -6.52574267   -0.07640603    8.17084792     -5.19010611    0.38700654   13.10398400      5.57829530   -5.36423087    7.31359304
    8   -4.11268201    2.98787713    0.57158002     15.44554638    4.47833026  -31.71149352      2.11154558    7.77841026    2.41943665
    1   -3.41286452    3.31128287   -0.07186062    -17.49379394   -6.73137087   12.76774592     -0.61783382    7.22484723    4.87198894
    1   -3.70806411    3.24844191    1.39539118      9.60910490    5.94457503   15.94528695      7.27513927    2.73189428   -0.63723944
    8    8.47304628   -8.92711474   -5.64311915      1.22146289    4.11575232   -9.98056917      3.45333007    4.54870991    4.74115274
    1    8.67386447   -8.23031003   -5.01406858     14.73181453   15.93082634    3.59414262     10.00774109   13.20889276   10.76838132
    1    7.83430551   -9.37093223   -5.08159852    -17.15984514  -19.26482514   11.89602493     -9.70780469   16.42674399    0.46286197
    8   -0.22104089    3.05484106    7.70461790     -0.50666572  -12.09884529   16.79118525      3.05047253    7.90175411    6.85232708
    1    0.62034681    2.61778809    7.99719340     -2.52260015    5.30993540   -7.27581419      7.17486116    1.52216920   -0.46114469
    1   -0.83239010    2.62180931    8.37495419      3.92602893   10.02806965  -12.44873239      3.93304357   -4.52023892    7.23620676
    8   -4.80984854    5.73486036    6.28307816    -10.00730297    5.73079683   -8.41104994      6.97399513    5.49343805    7.32730507
    1   -5.78222032    5.65983928    6.15396660      3.67450568   -0.60035073    4.46980660     10.12684057   -4.76077565   11.66248065
    1   -4.68140833    5.28213480    7.14538496      0.52867988   -6.54264583   -1.21551185      1.72811667   -1.55138749    8.07669418
    8   -6.66321932   -5.44665309   -7.40085718     -5.51186039    6.09007616   -8.68164690      3.41916806    6.28416146    8.33207905
    1   -5.71654666   -5.24279629   -7.31378300      8.07893629   -1.84747426    5.40865158     24.60735965    1.47228027   11.06366232
    1   -6.81147684   -5.00803295   -8.28067762     -2.61642612   -4.49392632    6.12301034      0.02383125    7.27943952    1.04862272
    8    9.09031602   -0.21645105   10.40423020    -34.25486570    8.82434399   11.62093560      4.35899066    6.38327901    5.60483044
    1   10.00183779    0.02491217   10.48237977     22.80596319    5.65132580   -2.77013013     21.26804189    6.66232381    9.93785025
    1    8.65564112    0.57567086  -10.16050898     11.78631866  -14.15091222   -9.77466257     -8.09067388    1.03272268    8.73412707
    8   -6.37764566    2.00580714   -0.39845230    -14.37447445    2.46337149   11.18610668      6.14499597    6.23486817    4.67461165
    1   -5.50684556    2.35468126   -0.13366314      6.92563189    4.59415674    9.54341906      3.25607164  -12.21415184    8.53560771
    1   -6.16073509    1.66818391   -1.25798247      6.26782135   -6.57394760  -18.58551890      3.27095317    5.92997509    8.79715529
    8   -7.22031345    2.24313030   -9.35830316     -2.97466552   -6.67227785    3.54599692      5.17021448    6.64015391    3.21224621
    1   -6.68306350    2.94025922   -9.79471277     -2.22893301    2.53932068   -2.61717878     -8.38983257    7.85158346    9.77366892
    1   -7.64533040    2.77028459   -8.63433691      2.40396550    1.47999924   -3.13869616     -3.10285441  -16.73786276    2.67474518
    8   -4.07823047    5.57844355    3.66786461    -13.21802950   17.72127937    0.97035442      1.98144567    2.80400183    4.41401206
    1   -4.35489569    5.56909533    4.61992084      8.08248735   -4.16259856   -4.02013594      0.87717734    6.05686275    9.62098869
    1   -3.63638460    4.74056234    3.52392606      6.51550411  -12.62355769    2.38115287     28.17474004   15.45284857    8.55773705
    8    8.32227684    1.67305635   -1.40704964    -11.57793686   -2.63154826    8.96267610      5.84209737    7.64224602    5.70985225
    1    9.22730108    1.92964431   -1.63555489     11.67447296    5.05829998   -0.91157248    -16.17893279   10.11012021   22.10509174
    1    8.26039157    2.07496952   -0.49306201      3.76687413   -3.60682431  -14.45217531     10.15386617   22.36282370   -2.40503957
    8   -9.18478316    5.40700140    8.90024420     -9.03185233   -2.70363654   -4.07197195      5.64874586    5.96720412    6.48955432
    1   -9.46723545    6.24129704    8.49128206      1.31212189   -1.11161271   -2.60809459      2.25391437    8.07891002    8.56324178
    1   -8.54188827    5.77161808    9.51346946      9.25800537   -2.01575375    9.35927912      2.04731100   24.65627364   -7.45358863
    8    8.79910778    7.01221031    6.54909135     18.27327861   -4.28295208   10.33135500      4.85751462    1.59787526   10.35219042
    1    8.14740419    7.21349186    5.88747707    -18.02800701    3.61600016  -20.95654565      0.79070958   -8.01548143   18.59206276
    1    8.76874035    7.84414099    7.04183494     -1.19657965    6.38855887    6.78042333      0.65211361    6.25577859  -19.07792310
    8   -1.77799150   -4.86396806    1.53717596     -4.77372632   -0.71081509   -2.06090701      6.01245325    2.69091083    7.27798327
    1   -1.98847953   -4.19103526    0.83060538      8.03568604   -1.79803194   11.04227167     11.21579124    5.28635365   -6.04831124
    1   -1.34339029   -4.32029752    2.23725152     -4.20514425    3.44770373   -7.94026853     18.41671337   17.98539471   21.36453877
    8   -7.63991522    8.21816910    3.51038087    -21.62004995  -17.34204177    3.57488966      5.43744257    7.35616134    3.40504287
    1   -8.41765610    7.64252877    3.74982434     16.49753096   15.93267702    0.29793333     -4.66554440    0.80633259   19.00241259
    1   -7.12330373    7.55566959    3.01573272      4.38519250   -1.42022619    0.81418914     16.42660005   -1.31263331    4.49752254
    8   -3.34723114   -6.79327998    8.34089606     12.21923598   -6.44298482    6.45935631      6.95691327    3.75448875    5.09743743
    1   -2.93798500   -6.10044298    8.92512401     -4.41340074   -5.44471888   -2.24810803     12.56255558    8.41360823    2.28712468
    1   -2.80790437   -7.59815901    8.55823159     -9.20258553   10.95802541   -3.20556451     17.09967804   10.99519524   13.41884314
    8   -0.71033861   -7.34903635    2.13229300      6.01438885  -21.99362912    3.00659673      2.06350223    5.56991470    3.52592942
    1   -0.72128447   -7.47196453    3.10695137     -0.81638703    5.07161356   -3.83913755      4.30871925    0.30636367    4.50495654
    1   -1.08168463   -6.46584133    1.99662999     -7.98602938   12.90589439    3.62340132     14.78585659   -3.25293494   16.73190586
    8    2.05179005   -1.68768950    6.57190354    -22.41657721  -20.91858920  -10.43747336      4.89162288    6.59569531    4.23845689
    1    2.39900598   -2.61754825    6.54665802      2.44428734   13.11048397    1.86171081     11.71653306    0.66531699    1.36453220
    1    2.81491323   -1.23177419    6.91718252     18.61659067   10.52638432    6.14156533      2.88688707   11.18831910   -8.43958745
    8    6.09162175   -1.18216534   -7.59968072      9.49868225    1.77333388   -4.01732793      4.14044386    4.31124349    0.76133857
    1    5.75892198   -1.35773453   -8.50612421     -1.97718998   -1.52129483    1.33603300     10.21316244    2.26361457   12.11324740
    1    5.38673867   -1.56325681   -7.05450148     -7.64321732   -5.21725864   -1.42966509     -1.83305245  -11.67621232    2.28345556
    8    7.14048632    5.31173385    3.21335161      3.12031600  -23.56986057    3.75493386      6.85828792    2.53781879    1.94544487
    1    7.21739014    6.18012682    3.62105705     -1.90833449   18.06080269    7.70058454      1.62145716   -2.06318858   17.07359817
    1    7.38154680    4.73971605    3.99569442      0.42125242    4.31034159  -13.90778536      4.50733447    4.46119026   -5.13127359
    8  -10.49681345   -6.25528221    8.13787397      1.62344527   14.57501250   -5.65221770      1.58642246    8.05228092    6.20730918
    1  -10.35729015   -6.24047962    7.16463668     -2.06072264   -0.56735711   10.47207776      0.32370701   -1.35212614  -10.90716301
    1   10.43060672   -5.28382387    8.33433749      1.03015276  -10.53132911    0.03736436     -0.80570215    9.85095325    2.39527716
    8  -10.43780804    2.05199542   -7.56817781     -2.08950582    1.63558588   -9.60120522      8.35693387    1.61760989    5.17078491
    1   10.00237440    2.66109789   -8.08891914     -0.65330643   -2.66401707    2.55470244      8.72052393   12.33140619    3.03913478
    1   -9.67920123    2.64146500   -7.45946547     11.11926968    5.53946346    0.46961607      1.59086345    5.17419130   -0.08084233
    8    2.64243108    9.41344225   -6.95048045      5.13415444   -2.01170119  -10.67761569      4.75543112    2.39565715    6.31421506
    1    2.13804029    9.97959826   -6.33919422     -6.88088284    6.44289904    1.43706701     -7.82960051   18.28982835   11.25940101
    1    2.97191408    8.74037108   -6.33070307      3.48419105   -4.26844560    6.60593909      4.46135441    3.53642274   22.48737841
    8    0.09396386   -5.62567341    8.48468320     22.94254385    0.31440009    3.58127994      9.80386864    6.91673200    4.43755415
    1   -0.64387115   -5.26985221    8.99929396     -9.68435545    2.69984209    2.68786719     -8.27808011    5.18346283   -6.12979059
    1    0.86260818   -5.38552075    9.05711501    -10.36923765   -1.88013238   -5.92383785     -1.35826696    3.51544278   -2.41869441
    8    7.12625959   -8.84447301    3.11822906    -10.37359056   -9.66916147   17.19544476      5.20008503    7.06393575    3.71580561
    1    6.77477070   -9.20313337    3.98893197     -5.05930965    1.79453184  -18.66184055     17.43378455   -0.91898274    9.64754145
    1    7.78988585   -8.29113669    3.52924990     17.46800698   13.38690995    1.11244520      4.20607020   17.01201067   13.87502202
    8   -4.14251978   -4.40766004   -7.00320204      2.71781123   10.67482447    7.55555410      3.38182995    5.88009511    1.47504763
    1   -3.95961140   -3.44427203   -7.17583540     -3.55034453   -9.89698554    4.31414455      1.03452248    9.56754775    5.75281584
    1   -4.29181237   -4.41205070   -6.01842166     -1.70613408    0.19769402  -10.07278902     12.62852064    5.29220170    1.72419401
    8   -3.07164946   -9.73205649   -5.19275083     -3.44828459   -8.86685980  -19.02203330      6.37565265    7.06792651    3.23849408
    1   -3.66892647   -9.77201989   -5.99321985      7.61084742   -3.25294975   12.42188640     13.77819071    6.66556011   13.45673434
    1   -3.67461487   -9.39107731   -4.51964697     -9.79847212    5.86204961   10.10789239    -12.52501291   22.68125745    2.47949603
    8   -0.60643196    5.54949813   -4.09657431     -0.96289518  -12.53486572   -1.56977536      8.43069729    1.44675173    6.31629440
    1   -1.50962621    5.70201682   -3.75556117     -7.26911444    2.43149534    0.41838652      7.75640024   30.74654077    1.01815423
    1   -0.63411955    4.55835816   -4.10590552      6.68097645   11.41776073   -2.86332745      7.03629850   21.19138566   -0.41487054
    8   -3.52587982    2.14536379   -4.76706924    -10.37204093   21.80612281   -8.18636059      4.47959988   11.57377258    7.17762030
    1   -3.48256163    2.00011273   -5.74277543     -0.36161014   -1.02978637    4.77141788     -6.60515964    2.49449284    7.25973309
    1   -3.94703282    3.05339402   -4.76074099      5.91680459  -15.28140016   -1.52921041     -8.02834640   -1.75538629   -4.97291474
    8   -3.32477796   10.08696857    2.38477247      7.32056438   -9.67608936   -8.40173056      5.02765486    6.26456398   13.03884625
    1   -3.90131443    9.73638961    1.66707868     -0.02185407    1.10001123   -0.22900198     -9.52237240    9.22684358    4.68030596
    1   -4.00820147   10.37276020    3.00827435     -7.02219079    7.66968281   10.26450702      1.29226653   -1.01708164   11.41065060
    8    3.23403459   10.46736759    0.05712187    -12.50559355  -15.61147239   -0.63894525      4.17021574    3.93862924    6.86017061
    1    2.49008888   10.21683447    0.66554694      7.91132760    6.40651822   -3.05194422      6.93252514    8.92842556    4.57612323
    1    2.96860308    9.93534493   -0.73184827      0.06003086    8.76514070    2.82914738     -4.93637884   -0.64274613    6.39165156
    8    6.01482829   -1.63354781    5.23081513     -0.26786657    7.24718711   -0.44381898      2.50465246    4.30851836    3.38712500
    1    5.44873644   -1.41083011    6.00437251      3.05737065    4.16491306   -0.16809413      3.28253631    1.45241850    8.14884132
    1    6.44931926   -0.75408136    5.04777325     -6.78763529   -9.97161974    3.89232660      8.87969705    8.50821559   -9.84937642
    8    1.01065536    0.98199227   -7.56625668     -3.70035500   -7.08503227    8.55260281      3.12412098    7.38300138    8.42766414
    1    1.84474221    0.89169549   -8.03822965     10.28973544    3.00921198  -13.95863124      1.29961114   14.89751530   12.94199664
    1    1.27577963    0.43286355   -6.79310173     -5.41718484   -0.40451372    3.67584596     10.55096639    4.32733271    5.58947152
    8    3.03758001    9.35425689    8.26743858     24.55838071   -3.15444522   16.54525342      6.70332709    7.58661054    2.02741213
    1    3.47054106    8.58711883    8.77494118    -17.24977032   15.76318700  -17.31649853     -2.20207400    4.63265607    2.46445707
    1    2.12588525    9.03831970    8.16792975     -8.16269477   -8.05166767   -1.37734984      6.50002933   -8.27946067   16.64262757
    8   -7.75362743   -2.36144176    6.58962803      4.52609807    3.16807487    5.54500020      5.35894475   11.52456476    6.27551442
    1   -7.61694274   -3.31598170    6.44217657     -4.80858533   -6.03132455    0.04203619      3.45151796  -13.52251278   17.58322431
    1   -6.96101256   -2.02579787    6.12323522      1.14382516    3.00793307   -6.81408677     -3.26754795    9.92956226   15.23240593
    8    2.41045613   -5.26398403   10.27758555      6.24290665   12.44044968    3.17827225      6.33932897    8.18718378    3.77886079
    1    2.24399616   -6.21717473   10.38720776     -5.99803464  -11.35578227    2.54253645      2.13659660    7.90986855   -0.49532661
    1    2.42534844   -4.99584110   -9.77345042     -1.97877775   -0.02154036   -3.63005047     -1.14667082    9.86518397    7.23657097
    8    1.99524527    5.33683845   -0.92103695    -11.05271358  -11.53503833    5.33935877      7.22364292    8.20959632    2.94780885
    1    1.38485053    4.88468768   -0.28007409      4.81007432    6.63583222   -5.83596236      3.08947654    4.98751995   -6.15362641
    1    2.70942491    5.58810993   -0.30794276      6.20093862    6.17100541    3.66105531     16.82807604    5.65659291    7.51624260
    8   -3.09396435    8.64825587  -10.38123339    -11.42033109    1.53605626   -2.36972868      4.99467586    3.17015721    4.67629201
    1   -2.13209885    8.85004336  -10.36720765      1.09739552   -2.31826428   -0.79655341     -3.75761167    2.59696373   12.81166965
    1   -3.11818549    7.85903072   10.03679538      6.18219743    2.10503972    2.66102286     15.15447571    3.89755055  -11.70560778
    8   -3.76427046    1.90730688   -7.51524263     10.22599141  -25.08064324    7.35923698      4.73191364    3.89926121    3.59192042
    1   -4.02914193    2.80109937   -7.74674459     -8.05999824   16.62695689   -6.89051086     -3.13856305   -6.86127588    7.54194330
    1   -4.45797076    1.36083382   -7.94878252      2.25301330    4.64456811   -0.04406479     17.09566772   14.13483913   -7.02020625
    8    2.01000209   -0.46020838    9.85597901    -20.32020054   23.58320224   11.15009811      5.01962593    5.66640596    5.75082760
    1    2.37518574   -1.32799986    9.68673940      7.87533669  -21.38607952   -6.07996011      9.61890046    4.64806709   19.67959380
    1    1.05864647   -0.67759129   10.07203064     10.38259049   -1.42186192   -3.91505077      9.30045667    7.30038373  -14.03672614
    8    1.17203972    3.42250780   -6.53674996    -10.35624887   27.05332636  -17.57699090      3.80667055    7.40763892    3.09111974
    1    1.00495989    2.55320751   -6.92202775      1.71347916  -17.56659047   -3.53743234      1.04231906   14.66277360   -8.67947274
    1    0.98205896    3.97590040   -7.35083616      3.35872792   -4.06678299   17.82275651      4.53844558    5.87834655    1.32681477
    8   -6.63920210   -6.55631571   10.24317080    -13.05504313  -13.31690861    2.18117638      6.00115050    7.11569086    7.01776508
    1   -7.58184402   -6.80951003   10.36024570      0.88099445   -8.02276059   -2.54332570      2.92110715    0.14482134    6.51682187
    1   -6.74352737   -5.66147573  -10.41859398     10.73570417   15.91499123    4.62026243      7.96565485   15.55076504    8.03673533
    8    7.61824059   -1.64741545    1.41972571    -17.76580772    2.15517549   -5.17706475      6.88014308    6.14249564    4.34439114
    1    6.66176233   -1.73038773    1.14531108     10.09622478    0.84169898    4.60112039     -0.87187982    7.70590058    6.78434461
    1    7.73453994   -2.51616058    1.86003393      1.53388640   -0.35099465    3.95039468      0.12361940    1.85527511    5.79083313
    8    4.13518457    7.27409952    9.46773325     -4.20630550   -1.50303860   -9.13808062      5.77805703    6.55934149    6.92341605
    1    4.24622751    7.77515524   10.29247723      4.33593920    1.84196309   12.48858559    -10.01566444    7.79954731    4.13463182
    1    4.28692258    6.35838332    9.77514899      0.46428366   -2.35042410    3.43188606     -4.99452417   11.68491763    0.78848829
    8   -6.26149351   -6.62300672   -0.23173942      5.19994307    7.38612486   14.06577954      2.25586553    6.41539503    5.17725027
    1   -6.61372688   -5.97284496    0.43632536     -2.24486138   -9.14953284  -10.10920939      0.86261497    8.02731354   11.39019873
    1   -5.34772323   -6.69489188    0.11741413      0.30958008   -2.09724664   -3.08265203      2.27141079   -2.88991150   20.74914175
    8    9.54789502    8.09301302    9.92762556     16.86346583  -11.72792473    2.16716944      5.99680734    6.10597646    3.64903616
    1    9.08470640    8.59105917    9.23687194    -14.88725637   10.14211005   -5.18639963      9.81289454   -5.43067147   12.99510231
    1   10.39299498    7.97580168    9.43681009      0.43223375    1.42871010    6.32204153      3.46676327   15.15381624   10.48455424
    8    4.29922817    2.10024220   -2.02910114     26.76294741    7.64709863    5.10814707      5.52023674    5.33438405    7.03366922
    1    4.53767236    1.94777075   -1.06464209     -2.27662392    5.25928695  -15.41363050      8.02794776   19.74666912    9.13598835
    1    5.15153099    2.51145383   -2.36782842    -18.24758223   -6.67246894   11.38572337      0.64649978    3.52572209    6.10862336
    8    9.28734295   -7.73680654    4.50489127      7.34737332  -13.90074018  -18.28715289      4.49147851    4.30348575    5.44121121