 BEGIN_INFO
   #
   # This is a XCRYSDEN-Structure-File
   #
   # aimed for Visualization of geometry
   #
   # Launch as: xcrysden --xsf HICOLM.XSF
   #
   #
 END_INFO
 # estrutura final
CRYSTAL
PRIMVEC
      20.78400715       0.00000000       0.00000000
       0.00000000      20.78400715       0.00000000
       0.00000000       0.00000000      20.78400715
PRIMCOORD
  927    1
    8   -1.83368245   -8.20021226   -5.73655862    -13.93171000   -1.43604229  -42.47774369     -3.12636064   -6.61319049    6.52886794
    1   -2.09762061   -7.28120553   -6.25622231     12.36502285  -47.05259809   23.62469158     -0.33477185   24.92254613   -8.53551834
    1   -1.97681273   -9.06504841   -6.35456703      2.93450899   45.49653034   18.74500424    -19.13424149  -11.20085992   17.95741755
    8    1.11771458   -3.89336773    4.33597979    -25.18020407   50.18349989   -7.53454741      0.43065414   -1.10316561    0.58692274
    1    0.29546140   -3.86229387    3.68851731     15.53615254  -12.48771803    7.28883350    -31.74213524   -4.78175459   -2.34872381
    1    1.20766279   -2.86354053    4.59503515      1.86747915  -32.25961813    3.26219789    -42.61435333    5.22828748    6.98916599
    8    9.58416717   -4.01763974   -9.58687868     -0.44348577   21.45467480  -15.54018843     -4.61497320    0.13995350    1.93267718
    1    9.01003347   -3.80608027   10.35307373      6.76765529   -9.76860545    8.23509428    -31.64256951    4.41903663  -38.74639043
    1  -10.29993987   -3.52537750   -9.78983078     -5.80213230  -13.77925378   13.16196792     22.48561704   34.92685291   -3.91387624
    8    2.50596525    3.94152997    2.15461402     -9.05814219    6.22410451  -21.10883485      0.88430289   -3.27079371   -2.20293007
    1    1.91852742    3.70546818    1.27937218     27.88620973   15.61744314   26.75798234    -18.24587525  -12.16054285  -22.66332268
    1    3.15913454    4.76903716    1.96873408    -18.47148772  -19.83511966   -5.40871742    -15.80053771    5.85860026   15.74762732
    8    3.70113911    2.27217429   -1.41400362     80.17747494    8.96624103    1.39575457     -0.90068686   -3.36939555    3.07551742
    1    4.63277292    2.31025635   -0.84865144    -57.36077765   -4.44538501  -25.26499284     38.25900449   12.38137920   13.62470969
    1    4.04444236    2.63133134   -2.35161154    -14.71721185   -2.45886311   22.17868173     24.26409630   -8.43201038  -13.51819302
    8  -10.14764918   -1.74423865    8.55261291     -5.33349061   34.79916531  -16.89052152      4.03694362    2.94718551   -0.17456973
    1   -9.51747609   -1.55665466    9.30644022     13.47313241    0.83249339   17.45076507    -25.14441101  -16.22280675   -1.19561709
    1  -10.39035842   -2.71106361    8.51987906     -7.08951988  -27.43955048    1.06450477    -13.96216055  -14.07747578  -13.78206635
    8   -1.41128816    4.18642868   10.02618388     28.13612133    0.86229310  -67.41236539      5.50982681   -1.46035301    0.34826004
    1   -1.44033396    5.19130278   10.25015774      0.18356524    1.25500613    8.18035027     14.26158080   34.80460489    5.32613622
    1   -1.02043624    4.17861138    9.01254724    -24.67325594   -7.38041902   60.08256510     -5.10336424    1.11365735  -19.92097367
    8    8.46239813    7.42337677   -0.39068817     23.54311292  -35.84450786  -21.73760051     -2.65056357   -4.81356732    1.96444829
    1    9.15714424    8.07305579   -0.02870414      4.20984060    9.64912209    2.23716650     24.11857528    4.96123699   31.41528911
    1    9.04843129    6.72794605   -0.94352989    -27.03638662   27.72284310   19.61864566     19.63500227    6.91890691  -15.74727967
    8   -2.14233434    2.17811552   -7.52641600    -37.26569935   66.99236187   37.33140749     -0.09069136   -4.19597588   -5.66125462
    1   -1.30664300    2.67699125   -7.08308228    -18.59677516  -19.57103217  -18.30980133     37.24842641    0.66718208   28.27372951
    1   -3.00023195    2.81242391   -7.26863344     49.02059321  -49.64900565  -23.03787705    -26.08328779   21.97374467   -0.19518480
    8   -8.87254735   -8.75540207    2.89834900     51.84781793  -18.71250030  -37.59458718      3.83848568    3.51214894    8.27191849
    1   -9.45104428   -9.50794473    3.16679837    -34.27187183  -23.93699909   18.14606600      2.03617350   -2.09580355    1.55096140
    1   -8.19751842   -9.31871540    2.28002629    -15.76092470   35.67532618   19.10452201     -9.29798157    0.35910021   23.64510177
    8    4.67134110   -8.85835914    9.36123496     10.69882021  -42.49520577  -18.40982139     -2.27518247    1.14143007    2.14193183
    1    5.05476612   -9.74229855    9.83698502    -13.32392030   40.69548397  -27.38973478     28.69768141   -5.04215055   17.59244485
    1    4.69813140   -8.99525169    8.30145663      6.11413773    6.23535715   41.39977275    -22.73662727   -1.91389208  -19.04769541
    8   -4.11185366   -0.41469850   -5.97920747     42.00686059    9.34383577  -54.79472094     -8.07528900    1.22509289    7.87789713
    1   -3.88585587   -0.44863699   -7.04155086    -20.69734176    3.91544424   62.76251930     -8.15058811   -7.41188828    3.83399901
    1   -3.22600100   -0.01751928   -5.48499741    -37.07225766  -21.29921523  -12.02752923     38.18514032    5.84355106   12.02480418
    8    0.56493938    7.83162299    8.71441365      2.66565943   -6.85715959  -15.90476475      0.44284911   -0.14464149    2.23356451
    1    0.85736846    8.79842748    8.44185063      0.47602679  -16.81306718    3.40194480     -3.21336544   29.76306068   -2.91504635
    1    0.78352708    7.09222283    7.97005716     -1.36933036   26.74656585   21.20758591     23.34916144  -31.49034758  -36.23885174
    8    4.71072412    3.63676978   -3.57644884    -11.55009910    2.14060840   20.18121234      5.87621949    3.81209820    0.53130490
    1    4.30654421    4.57395507   -3.53810984     -6.02692692    7.19295296   18.89127389     19.33686555  -24.35323390   12.28828320
    1    4.93399929    3.57519022   -4.52950457     14.62018267  -14.27913431  -36.40113413     17.41817164   12.43381817  -12.52790451
    8    8.10036843   -7.78878037   -4.56922153      2.48903043  -43.81316703    7.17691746      2.29711613    0.16374242   -1.83482969
    1    7.96797717   -8.83270676   -4.55164920      4.67016364   31.60885838   -6.27305247      0.38032647   10.68564630   -0.85903321
    1    7.97923845   -7.39897913   -5.50544875     -3.84370826    4.24927754  -10.71102748      4.35211096   -3.81796332    7.34722608
    8   -3.99513811    9.02548515   -1.46366237     40.26304479  -37.90525189  -10.42412861      0.74499475   -1.41544532   -0.19123819
    1   -3.84917788    9.82729806   -2.07111243     -5.65410216   12.93146273   -1.66014458     -7.83707754   -0.02534935   -1.70209002
    1   -3.20366683    8.37737377   -1.77386691    -36.86576337   25.19335001   13.35797040     11.51073480   -9.58923028   -1.52119964
    8   -7.48155677   -5.38090719    5.95800112     33.48872073  -12.08879151    6.67911929      1.43136700   -2.02212147    3.48377344
    1   -6.46566361   -5.32820913    6.24860481    -31.00625072    0.05009329   -5.40556463     -0.99224299   13.92825732   21.02204258
    1   -7.55714717   -6.34194919    5.53331394     -1.40216749   13.86581833    4.92591435      0.34769797    4.14931047   -8.09550357
    8   -7.26385941   -7.80256333    4.81632723      2.76032381  -41.37789040  -73.15587875      2.16616085    4.61573873   -0.54512607
    1   -6.39772935   -8.26281007    4.32953788    -40.46870219   28.05681770   38.31959477     31.10844172  -28.87993673  -19.69178007
    1   -8.06133620   -8.04613001    4.11157450     42.84244300   11.12050211   43.93612720    -10.80474744   -4.27830721   12.11298992
    8   -1.28129067    6.06578186    3.67258787    -58.57152895    9.90666450   56.14970026      1.68275735   -3.54842033   -0.25975530
    1   -1.59058237    6.05943140    2.68705631     -5.68155114   -3.81212453   10.22478026      9.74062188    1.99660343  -12.59975653
    1   -2.11729405    6.05673769    4.41444244     57.65204814  -10.33194851  -65.54172633    -36.72864939  -17.56953261   35.90663563
    8    4.48832913   -0.87370507    7.07794140     36.74099247   -2.37631665   29.34781055     -0.04709140   -2.45649466    0.88414238
    1    5.16244876   -1.37374984    7.74165064    -20.62765057   24.12009065  -22.39428487     29.73705883    3.87126069   13.54615002
    1    3.75432641   -1.59426854    6.93992038     -9.61726715   -5.02110731   -3.22233757     -5.59590375   -3.44100578   -7.20758039
    8    1.49363276   10.02206295    2.49316845    -39.80150263   20.88316160   35.06586591     -8.79453569   -3.86343532    3.81621791
    1    0.72356137   10.23411240    3.18891543     32.39952620   -8.26035045  -30.94979810      0.00593991    4.98101663   19.38914662
    1    1.96587181    9.13717578    2.80276124      1.87346603    0.89528398   -6.42559469     20.99070038  -37.12032522    6.24390114
    8    3.27528512    7.78423952   -0.91657917     24.93689333   43.49398441    9.66703531      1.51028358   -1.47567304    0.15831089
    1    2.65104243    8.60591731   -0.64247567     27.16458625  -28.37734698   -6.59662471    -24.34847901   18.61269512    3.09257966
    1    4.30191350    8.08891827   -0.82039744    -46.65077797   -8.23126145   -1.45235237     24.47160781   21.58067694   -1.47158060
    8   -3.72261247   -9.52078829   -3.17282191    -34.68270451   -6.31376366   13.99076976     -7.79534553   -2.23335146   -1.21634751
    1   -4.67284391   -9.70100756   -3.55773119     15.13701361    3.55410736    4.13721349     20.23322128  -20.89873987  -11.23720951
    1   -3.03872485   -9.50126944   -3.89186360     20.13142247    3.38739221  -25.08813953     25.46153761   15.05705611  -10.48951391
    8    3.65101246    9.49475158   -8.88585842    -14.62887547   65.50405832   26.19150063      1.12954205    0.86386178   -0.82259687
    1    3.86311483    9.92974820   -7.92301486     -2.31046518  -28.40573700  -43.67042925     35.73605463   -0.27460059    5.83975944
    1    3.07811719   10.26059552   -9.38145164     18.81797982  -37.58108257   18.94655148    -21.85005830   -8.68656615   -0.39397730
    8   -5.49290363    9.16478742   -6.49525102    -33.31369330   36.66147317  -45.93459414     -1.21185106   -1.28225546    2.55213464
    1   -6.03670932   10.10943921   -6.56680751     38.44448429  -56.60611807    7.99844599    -28.54221577    3.14326848    6.30461878
    1   -5.38458482    8.76719976   -7.49498345     -2.10124716   16.56204388   44.48631207     -9.40505998  -13.91035177    6.07333790
    8    1.26123523    5.97408429    6.95884784     -4.20767244   -7.29567895  -24.70788637      0.40228856    4.64759413    0.27532093
    1    2.01860886    5.31561886    7.29614251     -4.62041544   19.27499999  -11.22477388     11.55269790   -0.12678737   20.16233162
    1    1.29861387    6.15848104    5.91785443      7.22795143   -9.48116225   27.70090179     -0.78047628   -6.86121779   -6.81369277
    8   -5.62672898   -0.84501384   -3.76839237    -41.61271014   25.11804277  -18.35397030     -1.41149707   -3.23364341   -2.63301498
    1   -5.07573625   -0.62457945   -4.62617060      4.66559798   -4.24208066    8.65485455     11.96809361    1.03088256  -23.77241906
    1   -6.56667703   -0.34493747   -3.96591173     39.49271037  -25.86410533   11.96476262    -31.71030880    8.00600017    2.89295708
    8    2.83294464    7.99384462    3.21409187     14.74815546    2.22778025    7.96344704      0.69670040    1.19970937   -1.78982716
    1    2.35279758    7.20263843    3.68415840     -1.48355026    0.78241380   -0.48471344    -21.88266885  -39.76952949   -6.08685372
    1    3.72121152    8.24822955    3.69416526     -6.97806606  -11.48592371   -2.76869348     14.17490538    0.59296929   44.15031896
    8   -6.02811916   -2.11283215   -7.07681575     -2.78611270   -4.50752788   -3.78282821      1.78886124    5.20949734   -3.98614997
    1   -5.36005197   -1.64144993   -6.45061670      1.29914296    1.16264857   -2.45487932     14.67086732  -13.63499575    6.87749726
    1   -5.67448662   -3.04245347   -7.33310206      1.63135972   -1.45126226    5.65846452      8.31839767    7.01148438  -11.22940546
    8    9.68654568   -5.70052100    4.29194316    -54.14033384   12.86246713    2.88973612      5.26921678   -1.70636787   -9.23581430
    1    9.22223963   -4.81963752    3.90849998     13.08295713  -32.24380918   11.52140921    -28.82972020   33.52449142  -37.55137601
    1    8.88634980   -6.40938907    4.52460666     42.84388528   31.81634039  -18.57508189    -16.91692889  -19.70433865    2.26001475
    8   -1.03494526   -9.35087503  -10.00145206    -21.02755549    3.00033630    4.26208352     -5.66473330   -1.42639210    0.78018233
    1   -1.73852017   -9.59119973   -9.26578304     21.64644125   -0.78378807    5.45316445      8.36890661   -9.63254082   21.53610850
    1   -1.66604121   -8.75947719   10.23159058      4.60237602    5.88434791   -6.20944083      8.38105966    9.68473795   -0.61646509
    8   -2.86903528   -2.88227215   -8.72056464     28.94763726  -17.01778664  -22.16570178     -8.74989891    1.27778562   -6.30547872
    1   -2.13285241   -3.36390337   -9.32206371    -32.45099789   20.06832393   26.77278312     -0.31753102    9.65782480    2.19443840
    1   -3.32723257   -3.50412489   -8.03426271      3.72058715    2.18146886   -8.07402166     26.94383864    7.37397645    5.01692107
    8    7.56001009   -3.95260743   -3.74520840    -79.06837520   11.05723931  -39.76229180      2.64978421   -3.83306239   -1.72135616
    1    6.69196320   -3.55137304   -4.32527551     73.36998934  -28.05176747   43.03210954     -7.47070418    0.24716647   -8.21301219
    1    7.20482175   -4.67784313   -3.09232047     12.19136422   11.75317848   -9.98096569    -27.65500159   13.16218192    9.29863327
    8   -2.94887611    7.60411553   -5.64899898     -4.75225844   -3.34398509   15.68541894      0.19367169   -4.71879232    2.32674298
    1   -3.87459487    7.99396157   -5.80653266     -7.55722672    3.68398018   -2.73926622      2.32236420   -3.96280160   21.35190119
    1   -2.37224940    7.83032434   -6.46008834      6.47273791    3.54722948  -17.37028329     15.31641184   27.44605155  -10.20927544
    8    7.89862202    4.77538945   -3.00113864     48.26020100   10.45003787   38.89856248     -0.29672405    1.40759861    1.87466721
    1    7.16843326    4.87276749   -2.28718760     -5.74059746   -2.15494091   -0.34395131     16.39288016    9.83371342   14.62252925
    1    8.81989397    4.94427844   -2.46584421    -33.54720731   -8.48106772  -30.94877663     11.23434660   -6.42778907   -0.76972760
    8    6.35199631   -1.21810331   -0.99718708     15.02538837   34.98273196  -18.68950274      3.12737057   -4.87165642    0.29562671
    1    6.77736865   -0.49385078   -1.68462937    -15.79747478  -47.87894634   33.67001769     -3.66168671    4.63397106   15.98102389
    1    7.12540471   -1.90787616   -0.77553587    -11.18573848   10.80322888  -10.64477994    -19.67913768   26.04462673  -10.19866302
    8    2.24458149    2.60225612   10.21952994    -36.34329667  -13.53802244    8.05810744     -2.41982138    1.82968141    1.37245274
    1    1.28695344    2.41334648  -10.14871358     33.16820273    3.47343709  -12.42066829      4.84887736  -30.99893650    5.54777729
    1    2.36750093    1.88038843    9.50314637      1.06161598    2.60017580   -4.36765318     10.05858652  -25.39708553  -15.47493960
    8    2.84068084    6.23681491   -5.76064053     48.07175561   67.92750658   51.36396832      2.28027734   -3.54693187   -5.86033821
    1    2.98091867    7.28311568   -6.10498425     -9.95403674  -81.69011613   33.17820718      6.67624502    7.29065282   -3.60253193
    1    3.32862935    6.08316830   -4.77319885    -40.03429886   16.46070531  -70.84395014     24.22919013  -15.17189451   19.79920910
    8   -4.03621808    3.11874141    5.94173923    -34.83549945  -10.79717231   64.68133652      2.59181520    4.41283626    1.70222616
    1   -4.12233083    3.10233203    7.06745407     -6.99465278   -4.17810804  -98.43137826    -11.18158827   -0.48070977   35.36743163
    1   -4.95266464    2.79414605    5.48070619     39.97507053    9.81419575   24.99429802     -8.34847231  -23.24650350    5.21893862
    8    4.82528954   -7.58406222   -7.17725102     25.49809923   38.71532170   -6.64687291      1.16617886   -1.09490271    1.92591245
    1    5.71955109   -6.98336516   -7.23339900    -42.10905148  -29.97922371    2.77543572     32.06744599   21.04136380    9.21702831
    1    4.04903295   -7.11204063   -7.72765891     15.76175484  -10.75540747   12.41650389    -30.29695528   20.76551795  -15.28822706
    8   -6.44015957    2.38728638    4.48429030    -23.28057780   -7.93935341  -16.28375146     -5.24351633    0.06226164   -1.23114762
    1   -6.00931408    2.03755667    3.59348078     -3.90361869    4.84261680    8.96803396     24.43544449    8.27528878    1.79285682
    1   -7.47346279    2.09937771    4.49112289     37.48298648    0.01317527    5.17125756    -11.85209197   13.68814851   -9.56604544
    8   -5.38049779   -8.15748951    7.08258369    -60.40463756   -2.47802880  -35.21537620     -1.69443605    5.61126154    2.75029292
    1   -5.22855602   -9.11205904    7.44083355      8.01635988   -1.79273863    5.79494707     -8.85612708  -38.03040111    5.09038810
    1   -6.30789490   -8.24393234    6.53139454     54.36714777   11.82974195   26.50846584    -34.59669140   10.44480557   -6.51859675
    8   -3.94349530   -1.01249868    2.28284474      9.92700880   -0.49760723  -20.19659572      4.26682245    1.27356332    1.90083433
    1   -4.89633287   -1.26870521    2.60340571     -0.22983964   -0.41055213    6.73377209     -4.89529541  -20.53443370   -4.03663748
    1   -3.79636642   -1.63223885    1.46331858     -3.95698793    9.98406587   15.27755928     -5.73431346   17.79223250   16.22768930
    8   -7.84406557    0.49691651   -4.44347112    -30.29310374    8.68304305  -30.19963724      5.40683485   -0.91810536   -0.64185318
    1   -8.01057753   -0.01303779   -5.36205012      7.18161447   10.03133833   26.58219672    -13.46142039    0.64252674  -21.31113918
    1   -8.65590078    1.17273020   -4.38394323     22.28669341  -17.04812544   -0.02087944    -11.33714253   27.70796205    8.20216695
    8    4.35832921   -0.24717471    1.20778698      7.30335011  -29.45685522  -19.97621966      2.43953878    0.54393339   -3.67574732
    1    5.24662585   -0.22279457    0.66317405    -20.34066764   -2.34483387   10.20138708     -5.41251954    5.39187222    6.55201218
    1    3.95592542   -1.22759430    1.11793533     12.52013371   31.37782346    9.24586667    -17.75119706   17.71361650  -29.34715047
    8   -9.92482540   -0.54152695    0.65238226    -32.85289702   72.70997646   56.57127109      4.20332628   -5.59195585   -0.52982729
    1   10.12830531    0.24176421    0.48937006     41.08067164  -47.60966693    1.91137017    -23.56803680   10.16200247  -16.26113286
    1   -9.41182385   -0.20063992    1.55212036    -16.90239123  -24.95170130  -56.78494457     11.97751056    1.96410175   16.66771545
    8    4.04394733    3.13752669    4.26581965    -24.34986123  -23.62433480  -11.57056393      4.99416870    1.90997247    3.50208060
    1    3.90945456    2.08570969    4.30467122      3.47047410   40.67993200   -3.51525164      2.34337035   22.64473083  -13.24942963
    1    3.47312846    3.60608164    3.50298893     16.88437769  -21.76172613   20.05412226     -4.02327386   -3.80741729  -16.44057934
    8   -9.45090628    5.93524458    7.57620826     -0.80127435    6.04215237  -12.70538034      0.47786910   -4.64905944   -0.05775448
    1   -9.95728214    6.84090361    7.69660288      6.57742929  -13.99557287    5.95408861    -18.80477170   26.36443863   -7.70759708
    1   -9.43998776    5.72924249    6.54296380     -0.62625512    4.42738517   16.09213067     -4.64667769   -5.58967705  -10.01373834
    8   -6.09695511    2.33895866   -3.14664531      0.39383704    6.01967058    2.02533152      2.24311498    0.67270977   -3.60356975
    1   -6.62985288    1.59619841   -3.57180614     -8.87729591  -21.48374425   -2.23187289    -34.22780322   -3.86506155   -7.33041850
    1   -6.27079156    3.06323866   -3.82827053      2.84238272   17.96288160   -0.93052320     10.07503949    2.93066257   -9.64656125
    8    9.99008796   -1.97616409   -6.18800638     78.57080346   49.11871908    6.58213771      0.87544957   -0.09125112   -0.90172610
    1    9.20374234   -1.31310713   -6.15174019      1.66148305    0.90366396   -0.83913005     -6.41310948   12.17047220    2.64882371
    1   -9.82020582   -1.40640443   -6.25286471    -80.99197152  -54.67659277   -1.77306171      5.78157459   15.12539730   -0.78742544
    8   -9.40911914    5.49760816    4.95764743     45.35015801  -19.15437888  -23.47317799     -2.38622068    2.84601290    1.84975978
    1   -9.55496312    5.90402644    3.98783283      5.62322866  -15.51690111   30.47908559     -3.77549475    4.01758485  -25.49232647
    1   -8.40331295    5.06718021    5.06623378    -53.66491379   29.54958050   -5.42897112     39.40697589   -4.60224535    1.58990065
    8    3.43986584   -6.33079128   -0.29953902    -28.26056381   14.85534724   36.23056002      0.56503839   -3.34914862   -2.50459289
    1    3.83579968   -5.88397695    0.59353910    -11.02385057  -13.88281720  -30.86341099     30.98574688    7.94449139   21.46226986
    1    2.38537072   -6.37045545   -0.14936376     38.42615325   -5.22349092  -14.06939699    -18.85591565   -4.39133968   -8.00543652
    8    9.34620573  -10.35474043   -1.69522394    -85.87926974   41.66206897   18.37935418     -1.88387138   -2.71636500   -7.35146936
    1   10.12304723  -10.02525998   -1.14333363     16.18971265    2.85611435    8.99630084      5.38032115   18.26528352    1.45180305
    1    8.43595452   -9.81423521   -1.34226026     67.19968021  -45.73996463  -28.44875911    -21.52433108    9.37098749   -1.72439398
    8   -5.72886094   -0.94161164   -1.02348618    -43.46852440  -15.57652516   30.22860357     -1.87493779   -1.71297061    1.68102071
    1   -5.56433398   -0.86872891   -2.00752288      8.61255657    1.55862507  -33.39119093     -2.88016205  -23.63324813  -25.15761594
    1   -6.68775631   -1.41471731   -0.94087001     34.41840981   19.77591147    7.55585107    -22.59295695   -2.72296928   19.33413084
    8    3.14302405   -7.69647624    5.05012679     31.71657889   40.66631485  -76.23198025     -5.45288764   -7.82002355   -2.07817202
    1    3.11699208   -6.62121234    4.81911390      4.40934303  -62.88971710   21.42929790     -2.72811926   30.61354124    5.41286436
    1    3.59896877   -8.11628014    4.13124101    -36.85376856   18.36738429   59.45392671     -3.57499041  -14.93812946  -14.91587735
    8    1.20438389    1.16796437    4.81539494    -40.56138518   43.73093570  -48.85215261      1.08414698    3.01207356    2.67462178
    1    1.49277869    1.29123399    3.77259647    -11.57940657  -12.96021569   59.13539573      9.09958665  -17.15336381    3.76125152
    1    0.28582093    1.72488305    4.97534132     54.11009272  -30.83971290   -9.95296892      7.01019518  -24.16598234   16.27567315
    8   -5.04099223    2.91791551    8.37084430    -31.59547371   -1.50172157    3.56620866      4.86981988  -11.13141949   -2.52017943
    1   -6.10875809    2.96305951    8.41095607     38.05818031   -0.09249656   -7.97802644    -15.80025077   13.34916620  -20.73181089
    1   -4.64782855    3.11655376    9.29750733      3.14018781    2.51085401   14.65857887     22.15323856   -2.74291913   26.44343968
    8   -2.22772277    5.19719857   -1.75625481     -2.01118489   -8.28329516   16.74415859      1.66417865    7.00962269    0.71095120
    1   -3.05620502    4.78246208   -1.26387075      4.80900771    6.46300775  -15.20677216      6.69623320    7.26313340  -14.44128130
    1   -2.49335477    5.99272798   -2.33484080     -6.11497517   -0.29544874   -1.31237963    -35.97614681   -3.62184237   12.92847565
    8   -1.99082290   -3.67598610   -0.08286230    -66.69985352   14.25586988   33.04462031      2.48932990    2.63169864    3.34362441
    1   -2.94257466   -3.50584300    0.40478120     45.21501315   -9.63020148  -27.29473318    -22.64272842  -11.10701504   18.97976291
    1   -1.89912377   -2.94113922   -0.80243884      4.49270357   -0.04185780   -5.66869826      4.40914380   35.23851024   -4.43528076
    8   -0.29404033    3.67064364    7.10060133     -3.11608451  -13.98393814  -44.89140498      1.52084673   -5.83658182   -0.69189646
    1    0.19385293    4.58192008    7.01458734     -3.32992082   -5.53890063    1.65969329     -5.62982589   14.13986445  -14.18719480
    1   -0.53068172    3.32441499    6.09746443      4.07342349   19.33206674   50.05624443     14.35378831   -5.77150228  -18.28013362
    8    7.04966467   -9.04412329   -0.87791794    -63.00251798   32.14022487   54.74829635      4.05842557    1.65029805    1.73754622
    1    5.97569204   -9.05602639   -0.61643694     70.79237195   -6.99974039  -15.65026726    -46.75847390   -7.29974694   26.50653973
    1    7.45768663   -8.50734626   -0.03163012    -10.47079093  -22.19115861  -36.71787171      4.78840076   28.36388245   26.16240891
    8    9.90589081    8.15588167    8.19153200     -7.45404645    0.59190913  -10.35074161      6.44622524   -2.89445414    0.76868509
    1    9.78271056    9.19466302    8.35638575      0.79978296  -17.00227861  -13.41453503     12.27236485  -14.93273041  -12.07245443
    1    9.37693487    7.95331924    7.28864726      8.23329165   12.49403990   21.58157107    -36.16350278   -0.46817166   -7.25475236
    8    0.85676322   -1.42231243    5.57239108    -90.32307672   34.70273949    4.59283878     -3.83238721   -2.82298299    6.64191677
    1   -0.20289198   -1.23731747    5.78104415     64.28547582  -21.63250867   -7.51442990    -15.44485351  -16.87171529  -23.03227324
    1    1.05045970   -0.44378838    5.28715592     16.04809171   -4.68643915   -2.22109304     21.09163381   -9.35722466   -7.10908283
    8    1.70186811   -9.52766156   -9.65814892    -35.57856960   10.89243703   43.47998377     -3.38474959    1.47176303   -0.27633833
    1    0.63304275   -9.45489277   -9.79305652     45.03930040   -3.19276798    4.03837169     -8.39765199  -12.07308353  -28.58861078
    1    1.89304805   -9.23812924   -8.64109802    -13.16476362   -6.17384073  -44.81206986     10.19434501  -29.01086434   -2.17851340
    8   -2.40478631    8.51874525    2.22660653     -1.61294335   -7.91435055    2.93473751      3.48286376    2.11065672   -4.52495152
    1   -2.49787206    7.56041514    1.79743443     -0.02492638   12.33174033    3.53925712     20.50327363   -3.73890080   -1.75421817
    1   -2.22428428    8.40551399    3.23712253     -1.60076594    3.43059539   -6.98581737     -1.75568220  -20.90112319    7.98401224
    8    9.96592654   -3.06790276    1.40912927    -16.44634297   53.79004133  -24.01352343     -6.51788228    0.24320246   -8.44532067
    1   10.11487013   -2.07793928    1.06128888    -13.54097378  -25.16372039    5.91500188      3.78754926   31.69698223   -7.44185524
    1   -9.91053952   -3.16862252    1.77629740     36.98431007  -22.35372278   18.55153640     14.32101855   -4.05326921   28.88923536
    8   -6.22449197    8.26637217   -4.00352369     11.72337373   49.83605491  -33.56740955      2.55559593    0.05663022    3.79487245
    1   -5.99881879    8.41642847   -5.05953671    -11.68843747   -3.11522482   55.19314269     -5.86836560    3.38275974  -18.63178496
    1   -6.20616836    9.25090083   -3.56324685     -3.11141412  -48.46239710  -21.09238342     11.42583929    8.98311399   11.94474511
    8    4.21684143   -7.90002549   -4.33582732    -16.89086292   -6.63559094  -36.72190666      9.54410184    7.63646981   -2.36212943
    1    4.57747032   -7.64013435   -5.30300194    -18.45910984  -14.31681142   32.53689827      1.81425559   -1.24995583   -8.16551279
    1    3.25881342   -8.37675502   -4.36689219     36.11188061   17.86315558    2.04109076     -7.19538958    0.00267559    2.01354608
    8    8.12928063    0.29198571   -5.80512042     14.07700632   49.29547735   27.21323529      3.61661075   -5.67652905    0.03502651
    1    8.11955689    1.32535974   -5.52469433     -1.01556330  -39.88009703   -5.12701762      9.28730457   22.80526397    7.91480443
    1    7.68375698    0.29574960   -6.71884407    -10.32273190   -3.22285799  -15.20652764      1.15196291  -34.57504058  -11.19618718
    8   -0.71105076    1.12891331   -1.02770357     32.10022176  -13.93944550   73.23112185     -7.41809432    2.06544913    2.45214131
    1   -0.52964888    0.84416801    0.01897262    -18.83167159    8.90866073  -68.22073458    -12.57151838    7.42870000   -9.82910533
    1    0.17173653    1.63819799   -1.21126270    -16.29748317   -3.07218129   -4.89979456      6.96146456   15.33023313    8.94415090
    8   -6.55708148   -8.85701578   -6.28293390    -20.30764528  -12.55994571   -4.67227631      3.89373864    4.90349430   -1.20780885
    1   -7.32616594   -9.00755604   -5.57960891     15.45448443    4.20321916  -21.53270783     13.88282046   -2.64334107   -8.41913462
    1   -6.95274612   -8.90988933   -7.27237012      7.37325293   -2.51851888   30.09206712    -15.23664950   -8.18298310    4.10368236
    8   -3.60847681   -1.89896859    7.26312482     25.14224936   48.79922154   17.49050975     -2.20643793   -1.53544206    1.56767595
    1   -4.10805903   -1.16368600    7.86900971     20.07356541  -28.60438770  -24.50748932    -39.22723329   30.61663855    9.47296010
    1   -2.69819053   -1.46566056    6.88435537    -42.85783607  -14.80300198   11.59551258     35.50447777   28.21116327  -19.32771074
    8   -9.97355770    2.80788353   -1.31509121    -18.74106742   -5.91121318   31.15470179     -3.36278325   -5.50943290   -8.01279634