 BEGIN_INFO
   #
   # This is a XCRYSDEN-Structure-File
   #
   # aimed for Visualization of geometry
   #
   # Launch as: xcrysden --xsf HICOLM.XSF
   #
   #
 END_INFO
 # estrutura final
CRYSTAL
PRIMVEC
      20.47093048       0.00000000       0.00000000
       0.00000000      20.47093048       0.00000000
       0.00000000       0.00000000      20.47093048
PRIMCOORD
  927    1
    8    4.46874191    3.25961622    2.09288717     10.86817570    1.65847838   10.35748218      4.49203652    4.17704295    4.36288841
    1    5.00751740    3.17502368    2.92069190     -5.05687838   -4.26264461   -2.93654988     16.74593856   15.80571609   18.58442917
    1    4.34279110    4.23503667    2.17412969     -6.80171215    1.24696669   -5.18282610     14.46508147   20.21251565   15.79733748
    8    9.20744563    7.44368794    0.80945028     33.75966769   13.07396604   -2.54239256      5.08204965    4.69976063    4.19003416
    1    8.53067194    7.00375221    1.29576511    -22.53513389  -14.41318914    8.72232327      7.91568768   11.20058032   20.75438320
    1   10.01781519    7.11739955    1.28878591     -6.56686799   -1.07255736   -9.55468922     16.05413462   16.19213010   14.27256796
    8    9.70516179   10.04918782    6.92900980     -4.83749327   98.92073011    1.58295511      4.15740366    7.09032162    4.27534449
    1    9.91741587   -9.60157037    6.27819727    -18.09332874  -60.03542940   31.32804452      9.19765413   -9.98553663   32.54901507
    1    9.15185323   -9.87290175    7.62877288     18.22179828  -34.87078586  -37.77852691     25.88341770    2.17017370    0.54164086
    8   -1.12279888    6.66282080   -9.06183135     34.68043691    0.37972599   37.67217001      5.21642126    4.29230807    5.20852731
    1   -1.63429208    6.99299006   -8.27302700     -2.46100516   -8.80470441  -13.10144941     16.17607546   13.85072996   12.70497494
    1   -0.27882510    6.36665807   -8.54298729    -32.99267742    2.16959944  -25.11680281      3.57672509   18.39435866    7.29351086
    8   -8.94692865   -8.76065908   10.16159154     29.31889398  -38.65515091   -3.53966705      5.14476680    3.01612553    4.25868075
    1   -8.42906389   -8.11904027    9.67260745      8.77006565   12.13173512  -16.05772548     22.42150496   24.63746793    9.06700221
    1   -9.63522824   -8.22303916  -10.00418432    -41.88672981   24.93313238   15.09348478     -2.81571354   29.87393041   24.48871943
    8    4.83792238   -1.38250032    7.14142589     79.10157039   65.35943288   19.79928449      6.49406283    5.98716645    4.78623705
    1    5.54907385   -0.58238238    7.36868350    -59.05238751  -65.44751240  -25.54713434     -7.95959601  -11.22344143    6.41549632
    1    5.48660306   -2.05181135    6.76678040    -18.48030442    8.38693368    3.42896644      8.53261272   22.46115381   19.65088978
    8    3.25850544    9.92807683    7.17551335     42.31479704   11.81530691   58.23969081      5.45561045    4.54094861    5.76554956
    1    2.50043979  -10.19001670    6.77439987    -41.36889405   11.16474030  -27.58221016     -0.62607350   22.12867178    5.46321349
    1    3.26082978   -9.91361561    7.98116930     -2.34368571  -23.04992743  -23.28188908     16.34867003    8.75980620    8.82967277
    8    3.64166775    7.57133245   -5.44186386      5.41094218   35.68256924   22.49994834      4.35898817    5.09182301    4.85516993
    1    3.86192192    8.46817048   -5.00551396     -9.92095857  -25.28568814  -14.04466920     14.07581615    8.58450167   12.07454479
    1    4.35678203    7.53977298   -6.10630313      0.62084455   -4.20629719   -8.15409609     18.06588869   15.92696177   13.72474659
    8   -2.51316089   -6.13143364    9.37254000     51.08944825   35.00219900   47.61504492      5.64859955    5.14695126    5.51326603
    1   -2.46794500   -5.20232518    9.84498559     -6.88525589  -42.60763405  -23.13150956     14.97735044   -0.16619932    8.18578023
    1   -1.64877181   -6.51464494    9.81658589    -41.63296130   10.20497529  -23.69077940     -0.51578885   22.43143874    7.45970193
    8   -2.11732840    1.71006868   -6.95023667     18.71845913   -4.61632141   33.60559420      4.82946366    4.03132110    5.04515930
    1   -2.20412009    2.42822205   -6.27848519     -3.03490720   -6.09349159    0.67935442     15.72210371   17.16131859   19.62381120
    1   -2.53585568    2.14432919   -7.67505254    -16.71578266    6.33275644  -29.25312452     10.19500031   19.94589235    5.04193803
    8    1.54003976    5.25930491    4.28563767     28.30482854   14.50580616   49.04545602      4.98452948    4.54597914    5.61911657
    1    1.72217819    5.94023722    3.64893946      7.42461911   24.48220035  -16.86863504     21.09630145   29.56003050    8.92920753
    1    1.05916761    4.73813253    3.72271043    -35.78533949  -40.89762182  -31.73867934      2.68950784    0.26886542    4.99610030
    8    7.34232672   -5.94532056   -4.90357588     19.31260504   18.75285639   -0.44859687      4.78022758    4.74128272    4.33248146
    1    8.21782719   -5.90376023   -5.35765310    -10.73057450    0.44762934   -2.47955154     13.45094668   17.60425590   15.89415279
    1    7.32142764   -6.86474687   -4.64694166     -6.89803399  -18.79537990    1.17306690     14.20769863   10.14921633   17.57316201
    8   -8.79562791    8.70873135    3.14653736      4.19453758   20.02277042   35.56040186      4.41220246    4.72220426    5.18170869
    1   -8.78391793    7.84406111    2.76680890     -3.06365938  -22.91978740  -17.11492637     15.98827026    9.40055036   10.48427662
    1   -9.00300737    8.45333205    4.09701104     -3.46896561    4.33822594  -15.44904586     15.85747257   19.35006057   11.33072465
    8   -2.04381008   -8.34204559    3.10843961     11.64403520   45.64006204   13.45129377      4.44752829    5.44421989    4.55111248
    1   -2.68801782   -8.84829494    2.63806868    -18.85270347  -17.62409366  -15.18422513     11.48383956   10.96230869   12.33154619
    1   -2.44356086   -7.41240670    3.03386189      7.23691353  -26.14319343   -2.01931234     20.85450341    6.22105969   16.76763082
    8   -1.38458399    4.28775877    6.67194736     20.60589586   31.03479079   46.55184209      4.76837509    5.09526380    5.45853622
    1   -1.11113763    4.83479795    7.52165114    -16.05592073  -29.56804620  -41.62685572     11.38360427    5.26781442    0.63947797
    1   -0.53246564    3.80945018    6.53211680     -7.51596414   -1.68299628   -4.37990823     14.67582541   16.66046544   15.87635339
    8    2.79497041    1.13559854    1.75488227     14.42745318   15.01089420   65.64393909      4.53035201    4.52344963    6.05863821
    1    3.41630207    1.89365499    1.91765790     -5.43073958   -4.07053565   -2.15702803     17.24638907   18.29007389   16.82603025
    1    2.82706014    1.10084019    0.84533287     -3.74524314   -8.12892736  -60.17079008     15.70275648   13.85186535   -8.85201679
    8    2.14849917    1.91413020   -7.67391659      7.50990332   35.49685714   26.69197371      4.46515640    5.12152500    4.99561375
    1    1.56281799    1.29687172   -7.21760846     -9.16461615  -12.22157471   -3.28316409     14.25638167   13.06977892   15.33390241
    1    1.99364623    2.69789322   -7.04202505      1.46001714  -22.78227193  -25.30017566     17.77865939    8.67556360    7.56073504
    8    6.10525445    0.30690168   -7.63750774     25.99068042  -22.75580065    0.86605145      5.06299184    3.53862879    4.32173264
    1    6.81667505   -0.26272334   -8.08151503    -22.99276463   15.46269850    1.46523845      6.31553914   25.19301500   18.73731582
    1    5.77783946   -0.39885858   -7.02954111     -7.40013475    6.16934856   -6.40420539     14.51557662   21.03296218   13.86222291
    8   -0.22279540   -7.07724924   -9.97889213     56.54446781   17.38163678   25.30825230      5.77796092    4.56500744    4.91726921
    1    0.64196984   -6.62875907   -9.58844405    -44.43185874  -26.48707424  -24.17030266     -0.52440890    6.36381442    7.53770323
    1    0.10157171   -8.01665171  -10.10998591    -10.58516702   13.95382098   -2.11170389     12.23919409   25.77802238   16.91134933
    8   -3.82956960   -0.23370355   -2.15312564     52.21169418    5.38000005   42.66991280      5.69077647    4.34000000    5.32279641
    1   -3.66338274   -0.88426591   -2.83520035     -6.78079981  -12.37607335  -16.41767502     14.02049180   13.55058666   11.85112942
    1   -2.93669280   -0.37980525   -1.63756467    -44.96912827    6.63476262  -22.18298506     -1.34571895   20.23599179    8.19414786
    8    7.23995120   -9.46303317   -6.65554834      0.17352471    0.54555302    0.06644779      4.08793106    4.12458868    4.10405050
    1    6.87042502   -9.15194063   -5.80784879    -11.33100509   -1.98978437    5.17781770     12.12483579   17.48550642   21.70222378
    1    8.12188051   -9.05736374   -6.52926039     12.43130261    1.62421534   -5.29572774     26.20947551   19.91511785   16.12950971
    8    1.34032777    3.74666464   -5.79313264     42.34411687   10.48005839   38.12769259      5.39659318    4.54169155    5.19120260
    1    0.74265764    4.21819613   -5.15974784     -1.96010952   -7.56875659   -8.71861437     16.34694102   14.53987480   14.58350041
    1    2.19158046    3.69684139   -5.19846182    -36.70620636   -4.09209202  -26.73862405      2.32317952   15.89959076    6.94514874
    8    6.36762997   -0.37329350    2.85624963     23.69165749   58.41508396  -63.78056465      4.73292705    5.97138510    2.29041444
    1    6.82236563    0.28290753    2.12447081    -32.45316752  -55.34860438   50.98837518      2.72175130   -8.07879249   41.65444136
    1    5.47939728   -0.55041124    2.43361395     16.70231442   -2.71131412    8.38455195     28.45273154   16.66416376   23.21229126
    8   -5.06340004    2.32939704    5.42529448     24.06573644    8.02595599   20.47654053      4.77435389    4.48104321    4.75122519
    1   -4.71096574    2.22596357    6.35795934    -11.50517804   -4.61407784  -17.11192139     13.55160565   15.40276370   11.72966116
    1   -4.21621411    2.69792594    5.04837200    -10.69152997   -7.08808950   -5.09408065     14.30113583   14.89520681   15.10457493
    8    2.42307997   -5.49803536   -2.84640240      0.02562021    2.11023957   11.43292447      4.10783501    4.37334935    4.55170454
    1    2.06464575   -5.12567298   -3.66895563      0.53056738   -1.99339082   -9.64503805     18.66080915   15.91382201   14.49266526
    1    1.58615681   -5.76531744   -2.40576987      3.76838737   -6.01830800   -2.25160686     20.77778070   15.09435696   15.97618212
    8   -3.66259877    2.41943820   -9.03336275     21.85600506   57.04151799   21.12883605      4.87494885    5.73649216    4.79415248
    1   -3.83320273    1.72849458   -9.60988380    -13.73998627  -41.63837815  -29.55719694     11.46632252    0.41878315    5.79468649
    1   -3.28129371    3.09554796   -9.66199808     -9.36445893   -9.66440049    7.20597961     13.55018194   13.71230435   20.47590941
    8   -1.10789442    7.76415044    3.71677370     18.81375787   19.75962203   15.40190510      4.66865936    4.74559859    4.57663932
    1   -0.78059771    8.66059385    3.40679154     -8.23395158  -21.24020115    3.06143482     14.63303210    9.42571408   18.87520504
    1   -0.61265206    7.66906640    4.57646444     -9.54185824   -0.68611261  -16.53278867     14.71419031   17.45787408   12.16927022
    8   -8.90002631   -5.56967433   -2.05777465      7.83109900   26.91307234   30.45025215      4.45125275    4.83298262    5.06124336
    1   -8.94650766   -4.80288795   -1.38576087     -3.98708573  -16.97534494  -19.49898772     15.59785614   11.61572698   10.54281803
    1   -9.46590782   -6.19613726   -1.54310966     -3.97173713   -6.32598642  -10.43816394     16.61645245   15.82614310   12.20295836
    8    2.58514665    6.12549274   -9.74191634     74.06708262  -25.50954217  115.86559321      6.34198826    3.51034382    7.63752205
    1    3.62075409    5.85000838   -9.39762984   -108.41032476   16.67907893  -42.76181593    -31.92340013   25.53581728   -1.55516698
    1    2.04581383    5.99583668   -8.81160580     34.92876999    2.35986810  -79.77845509     34.36758512   18.93684390  -19.54442509
    8   -1.49105212    8.72680796    9.67657253     24.68100717   -0.05679968   11.22802482      4.97091477    4.33335370    4.56363919
    1   -2.32312770    8.93248343   10.10601081    -21.88283367    2.14404747   -1.30876502      7.58982733   18.29638521   16.94958440
    1   -1.14612299    8.12828872  -10.08886862     -1.02418820   -3.23319217  -11.87251326     17.16255633   15.44741175   12.89306858
    8   -3.30298957   -2.04364457   -4.15187002     50.14591466   13.15410189   19.23026408      5.54414110    4.65417641    4.76889179
    1   -2.31864225   -1.90541490   -3.86235356    -39.63427729  -12.20291037  -11.91709656      1.64257708   12.55656729   12.43246247
    1   -3.27856526   -1.46000993   -4.94453962     -8.76118330   -6.60857752   -3.24725448     13.88506465   14.26275283   16.44859585
    8   -8.40878412    2.86055809   -7.65778480     -6.56882815   11.00623950   15.96882163      3.93038783    4.44061503    4.59004989
    1   -7.45083545    3.06620048   -7.69243492      4.21648457   -1.79551315   -3.70848785     22.07382377   17.65119898   16.13217757
    1   -8.65377039    3.43436133   -6.87869264     -1.15551810   -7.81484101  -10.03757341     16.98230154   15.47775543   14.82775352
    8   -2.78730889    5.74733443    3.23463337    -11.54923591   26.07276796   49.16230539      3.81575173    4.81581256    5.59740705
    1   -2.18096689    6.50092811    3.49198077     -5.26000052   -4.73404875   -4.42420206     17.49027031   17.99190333   16.15292050
    1   -2.37250015    5.45917765    2.45850600     16.29897846  -16.77755205  -40.23650163     24.60741036   10.09668823   -0.38121175
    8   -4.46811873    5.35842710   -6.25539209     12.25778381  -27.08712160   -4.87949216      4.58118764    3.25190346    4.13730745
    1   -3.75640719    5.95377976   -6.50939047     12.94214688    7.99027150  -12.16973900     25.29214535   23.26646760   11.33551052
    1   -4.99363190    5.99847021   -5.80532496    -27.21580098   20.05298288   13.69256114      4.11111854   28.36106761   24.59800326
    8   -0.94233102    9.05748239    7.05770070    -26.69868918   49.46328335   -2.45487493      3.56776275    5.74458443    4.03948681
    1   -1.00264976    8.99476407    8.01345035     -6.28937918   -4.40410632   21.68320032     14.50329236   15.00282721   29.85490196
    1   -0.40667804    8.33270403    6.85855449     26.15183478  -42.84494117  -15.52561261     29.23726715   -2.36499873   10.42504867
    8   -9.04580046    6.26774368    1.87978680     11.26393502    8.51517996    4.60594475      4.48992020    4.56578128    4.43001459
    1   -8.13800362    6.38832532    1.51288798     -6.42536637   -2.17392420   -8.16428354     16.04363798   16.46994592   13.46565414
    1   -8.83401866    5.57472902    2.53122407     -6.27463745  -10.20608537    1.07616450     15.00288616   12.45384108   18.22938951
    8   -3.93600602    8.86558861   -9.60323673      9.69233692   11.91912372   39.09459414      4.58107771    4.51203546    5.23588226
    1   -4.25290096    9.78039508   -9.76967300     -6.95523519   -3.06441869   -8.05994747     14.09086255   17.12970501   14.10048657
    1   -3.83478545    8.97358486   -8.60335938     -7.97227234   -9.62973514  -26.84701489     14.05123932   13.86038781    7.37410812
    8   -8.85040339    9.46054723    8.71531708     -4.71676530   38.33222307   20.33289381      4.02500708    5.27861804    4.62984155
    1   -9.58657928    9.76690514    8.12608497      6.06232781  -13.81586193    0.70913595     22.19003294   10.56023170   19.44952365
    1   -8.85710671  -10.22048843    9.36162534     -1.51344061  -24.72784560  -15.46953863     16.73066075    8.36101401   12.00947927
    8    0.80963251   -0.84742925    4.53821452     31.18411781   15.32105520   33.34696621      5.02894850    4.59584288    5.10035028
    1    0.82958717    0.07494206    4.18409405     -3.73220823  -10.07559948   -0.99151485     16.18907622   14.13601945   17.05127310
    1    1.45094488   -0.70893105    5.33158331    -24.48437565   -6.76992739  -29.89320026      8.12111936   15.30377019    5.85198982
    8   -4.45461067   -9.11217590    6.46489095     17.90349674   15.71732482   -3.52631705      4.73888857    4.68471611    4.24410581
    1   -5.17460334   -9.57215284    6.88005422    -27.82072314   -5.59558775    6.91576768      5.72138267   15.52984956   19.93550863
    1   -3.88851672   -9.87826186    6.38890693     13.99657758  -10.51617713   -9.40015118     23.58981914   12.86539230   13.12273209
    8    0.53595607   -3.86453501   -8.93359070     31.06857400   32.30435626   39.24881505      5.08786762    5.05777612    5.25208916
    1    0.82892725   -3.10581288   -8.27329736    -15.64445350  -36.37378013  -30.15184176     11.52530492    2.62432733    5.69459767
    1    1.15914349   -4.59241429   -8.65941082    -14.05524801    9.57552409   -6.84553989     11.30379464   22.05325730   14.69185387
    8    2.04233562   -4.72262372    5.61806538     21.31389951   12.14959746   35.71197602      4.78968794    4.60585991    5.11788841
    1    2.66155227   -4.69560275    6.42298726    -17.03950182   -8.15653375  -24.45010246     11.13306221   14.22377532    8.73058474
    1    1.29247203   -4.24304128    6.03927137     -2.85062276   -7.85182915   -9.66941471     16.27497255   14.10545345   13.57533415
    8    4.96329699    1.79278274    9.14158610     10.80409414   24.64642092   30.57226759      4.45281947    4.87731187    4.99755794
    1    5.61853959    1.36091049    8.58396929      6.25211031   -9.22560563  -12.01778859     20.15764472   13.53933586   12.45499203
    1    5.59759940    2.23758556    9.79528699    -20.16139365  -13.81537172  -18.41407791     10.79726062   12.51730516   11.11165001
    8    8.87385982    1.54939809   -4.03656359      1.99535235    7.69488348   -4.06856636      4.14006175    4.51838725    4.03836921
    1    8.42566014    1.76275186   -4.89822285      8.08994141   -3.20267450    1.59158320     22.68659347   15.58427920   20.42405427
    1    8.09576941    1.20514637   -3.55931594     -3.44337702   -6.36811107    4.76409308     17.19636139   14.97698992   19.21508843
    8   -9.72208106    8.01157921    5.54066106     -6.22023874   36.24021743    6.09617117      4.05278865    5.26811535    4.22883322
    1   -9.91581581    8.83941088    6.09710025     -2.92769117  -22.38639771  -15.82050386     16.10742050    8.98030309   11.97575392
    1   -9.20448375    7.51782010    6.17859230      7.32393280  -16.19951026   12.31255227     21.86227591    9.36422373   24.75863300
    8   -8.38023956   -2.58843158   -8.76810062     23.90923238   30.61651186   24.99631762      4.81082862    5.04610044    4.85952873
    1   -7.59812564   -2.21979969   -9.30322064    -20.42775716  -13.37831902    7.54324264      9.23396195   12.09949020   20.86290222
    1   -8.11379760   -2.16459863   -7.86466051    -12.40814592  -19.58098605  -38.58654089     13.07802339    9.97392316    2.16931928
    8   -7.66745990    4.09617157   -3.48700012     35.63895894   46.50848353   27.53219207      5.13740607    5.50561352    4.90799955
    1   -8.13516368    4.44150119   -4.26561125     -3.12723374   -4.38727474   -5.00057717     16.99263086   14.83877724   16.87634252
    1   -7.16955788    4.95412191   -3.16050261    -25.68170543  -43.21089276  -18.22151676      6.92000418    0.11409092    9.85325842
    8    6.28591885   -8.46825069   -4.32323679      1.34896492   15.20465403    6.70922356      4.37116190    4.73271975    4.37417487
    1    5.68493646   -7.90196015   -3.78419354     -5.75649446   -1.84827787  -10.11362576     14.23457501   17.11238872   13.81973976
    1    6.47828734   -9.10919032   -3.63348572      3.24261657  -15.36132042    2.29009892     18.79113384    9.97218635   19.28681977
    8    3.64807753   -2.28900156   -8.69043564     31.23112143   22.75897279   41.79524794      5.04809807    4.87930572    5.30697119
    1    2.82769468   -1.95712908   -8.26248431     -2.84144989   -6.44786769   -6.37734251     16.62437443   14.57731981   14.81164911
    1    4.29084278   -2.03726147   -7.91599301    -26.66608264  -17.37156024  -32.84983133      6.76954611   10.59274931    4.82055315
    8  -10.12068285   -3.83037646    6.05359375     19.78680355   44.31821613   -7.96172473      4.61323481    5.58032417    3.90566982
    1    9.87427285   -4.41998391    6.60675608    -23.33128846  -34.61094291   17.86282425      7.05563377    1.65591948   25.73586255
    1   -9.30671200   -3.72833737    6.60207868      5.99320252   -9.05557203   -3.74064814     23.19049230   13.52311713   18.39350258
    8   -0.76134700   -1.34199725   -3.44524357     13.78941386   54.29352286   54.39462348      4.66017917    5.69351651    5.74325052
    1   -0.54008563   -0.33478700   -3.57550145    -16.60576494  -45.30977355   -1.01803348     10.39539048   -1.64964005   17.49812751
    1   -0.83406698   -1.33033836   -2.39884197     -3.45246275   -5.83758425  -54.73612228     16.11599027   15.46699442   -6.32016205
    8    0.21036171   -6.60828855   -1.77842026      7.74514208   23.99168328   49.09342606      4.47330090    4.94243584    5.51040085
    1   -0.41310733   -6.39442255   -2.45274475    -21.67469340   -1.82649186  -29.06065525      8.91937511   16.09268630    5.69699125
    1   -0.20049245   -6.05141012   -1.03633220      8.65566675  -20.29566679  -16.64665888     20.83580467    9.19845258   10.96081257
    8    2.91802336    8.02820740   -0.45239815     42.73970623   50.01152545  -21.55955740      5.51488448    5.72683326    3.70931649
    1    2.10968106    7.86253911   -0.08053703    -63.13837532   -7.54824578   22.89914350    -11.32374716   14.03118427   27.50826759
    1    3.29051652    7.19284776   -0.34583237     22.02557715  -43.37740297    0.65920966     27.45297922   -2.44782560   17.41410663
    8    0.64288511    5.86161922   -2.03424981     27.24472270   25.21404138   63.72817840      4.89101705    4.93457377    6.03731482
    1    0.15653466    5.58037535   -2.72278776    -43.23243552  -26.98131840  -56.11279134     -1.26747562    5.83476035   -6.00207056
    1    1.46666979    6.07461295   -2.47573213     17.27084373    1.80327064   -9.74708825     26.97121244   18.75600344   12.18268971
    8   -0.34904662   -7.68952923    5.15244199     28.29261233   24.97883656   48.43643072      5.00156369    4.90513582    5.46026437
    1   -1.04120814   -7.81638957    4.54873637    -32.34737798  -11.18592291  -31.81635611      4.83970447   12.52089785    4.64300836
    1   -0.76218679   -7.02834658    5.77951988      3.55360565  -11.22991343   -8.87781941     18.44453821   13.53277374   14.61003460
    8    6.70150593   -7.82148573    3.02963279     45.34312214    0.25684839   36.48782816      5.54981147    4.32059761    5.21636923
    1    5.92659707   -7.65066845    3.55379559    -24.32802202   -0.24891775   19.67678813      6.11328653   17.39735633   26.75695613
    1    6.32857655   -7.79423260    2.20115135    -20.80750017   -2.59163946  -59.12786876      8.87980930   15.93096882   -7.93146974
    8    8.85261112    1.64695156    8.53680925      6.61643138  -77.44127676  -35.92130799      4.50219164    1.74674729    3.15869134
    1    8.39624000    1.98346377    9.23870087    -41.99305867   20.71799069   55.91125588     -3.23824354   28.37333903   45.14217775
    1    9.28239953    2.42673975    8.31827886     30.13971869   50.68846726  -23.72073726     32.68814358   44.07823605    6.03100226
    8    3.58427123    3.44527279   -4.29813011     16.78910118   10.55506379   -2.45235138      4.60074842    4.62600193    4.16257095
    1    4.45225308    3.66396673   -4.73228658    -10.67449807   -6.10576612   -4.21195373     14.08084590   14.92457284   15.34120233
    1    3.94046191    2.98797019   -3.50538636     -5.44109936   -7.98835371    0.52713214     16.07262852   13.16937004   18.95223286
    8    6.62410600   -7.97956497   -8.81414385     52.87706027   28.83759872    7.23790756      5.64341160    5.12621657    4.37762122
    1    6.82014955   -8.41638669   -7.97765214      6.69049241   -8.62885815   11.62181788     20.87444504   12.70199325   24.30075538
    1    5.79964860   -8.32154772   -8.95105543    -59.34664612  -22.72608040  -18.36427376     -7.56662306    7.87332208    9.18160866
    8   -4.55977141    0.50974662    9.65973215    -24.27017265   30.04415316   15.27282472      3.54941107    5.14759443    4.79108224
    1   -3.96445334   -0.22292373    9.65445528     18.18601868  -37.13225952   -1.86635805     26.12381010    0.14382528   16.44320738
    1   -4.13204540    1.04389117    8.97646894      0.23633002    6.54707801  -16.37261339     18.11197598   20.89105097    9.32438200
    8    5.09713188   -1.93920990   -6.43272224     16.80031110   20.41064357   48.39169074      4.75473563    4.77243065    5.51442544
    1    5.24846429   -1.69139909   -5.44141370    -14.55449191   -9.19468716  -38.62205833     11.52507195   13.67409384    2.11039311
    1    5.42697912   -2.85441208   -6.34178089     -6.15143649  -10.12948024  -10.21161042     14.43404571   13.94100057   13.03437826
    8    5.78869002    8.94856058    2.38326196     28.13111858   21.32672357  -16.31986206      4.93331701    4.75589692    3.62422218
    1    5.29678594    8.71413134    3.15439991    -21.65969328  -12.25623213   21.75620845      7.36927176   11.82703619   28.23324030
    1    6.48178108    9.50084105    2.84091955     -5.40025900   -5.04171123   -6.78841371     17.47704004   17.19697159   16.53732909
    8    0.43783294   -8.82711177   -6.60909273     -7.78909236   68.81385315   41.16669982      3.85106524    6.12602021    5.38322085
    1    1.37773603   -8.64036812   -6.45245895      9.62376312    1.86059654    0.55229384     25.20020434   18.84869788   18.20688153
    1    0.53622354   -9.56680293   -7.09811113      1.82373333  -63.82884637  -43.60326304     17.95829999  -10.42434928   -1.65204152
    8   -0.72095131    4.93612334   -4.30583617     75.68134880   10.12460252   15.21957991      6.36903766    4.39100525    4.71252731
    1   -1.06158620    5.81589822   -4.27586133    -10.35119080   31.02865897   -0.56504446     11.94657159   33.58157003   17.17094082
    1   -1.48165128    4.50487348   -4.48871426    -59.03105960  -41.56788561  -17.12986185     -7.47785114   -0.68922918    9.93467686
    8    4.76404548    2.65236545   -8.08235354     19.86745396  -25.60982866   16.14267349      4.73329971    3.45606291    4.80883748
    1    5.30262807    1.81305868   -7.89657255    -13.05641948   19.24835101  -11.85670003     11.30750691   27.04417692   11.96893422
    1    3.88250258    2.32624110   -7.80066385     -3.00589897    3.95701649   -7.93651513     18.07606050   20.14535481   13.15696027
    8    2.99757681    5.92463760   -3.39397343    -24.90510692   39.11266485   40.18340450      3.58816956    5.28517496    5.49992576
    1    3.30627033    5.13859178   -3.73564977     14.52432923  -53.52972771  -22.54630510     23.49250766   -6.25062209    7.45208929
    1    3.36761541    6.54384609   -4.01198830      6.27745928   18.56281598  -21.23523841     20.86223776   26.90172636    6.67817394
    8   -2.90238389   -3.10798463   -7.36616131     37.98798346   29.93810772   17.05594942      5.21081043    4.95571296    4.69247590
    1   -3.82799775   -3.22728711   -7.49630269    -30.95878059   -8.33224311   -7.46145037      5.63299193   13.91698650   14.29725937
    1   -2.90303236   -2.18124167   -6.96439250     -3.34214268  -20.27692648  -10.92412871     15.95487781   10.69617489   13.57238306
    8    9.83148673    1.22151347    4.79751529    -35.50449849   -0.70250402   19.74001226      3.08427269    4.13102897    4.91285314
    1    8.82526467    1.19475162    5.03044230     39.41694020    0.47082105  -17.31279610     38.00021754   18.22742335    8.99445248
    1   10.08341115    0.28200445    4.97782669     -2.74829317    6.03156099   -9.18063123     16.18968836   21.64569207   13.00018177
    8    7.39130558    8.90728047   -8.38759340    -19.54487362    9.60218890  -22.32990095      3.59785437    4.44719932    3.37077981
    1    7.35229979    9.72243348   -7.86626372     -5.61235316   14.04865025    5.87158748     15.18289888   26.55611332   22.42118984
    1    8.02502285    8.45316386   -7.86297640     23.82672850  -23.36533524   18.52981134     30.07799238    5.90444297   27.66527793
    8   -2.81059088   -3.40774482    3.10511480     58.45123656   54.87301622   54.23643973      5.84034185    5.74000834    5.72085042
    1   -3.12616490   -2.53654563    3.59145338      8.82106173  -44.26911992  -26.80058158     21.83495949   -1.63012143    6.08330133
    1   -1.80557865   -3.34718472    3.46561747    -64.18643596   -9.50808040  -25.71081135    -10.37800106   13.88947385    6.66206148
    8   -7.24677995  -10.19403462   -8.82928296     35.72663887  -59.53100653   43.48275216      5.14931894    2.47188163    5.63626603
    1   -7.78024464   -9.60953812   -9.24042982    -51.87280277   46.61165798  -37.77148627     -6.50620905   39.04638103   -0.44085983
    1   -6.39455241   -9.77862214   -8.99007978     18.91424333    4.82094798   -6.68855642     28.73817384   21.30055624   13.64515093
    8    8.61541244    4.26060442    1.50289403     34.66305775   -1.35514946   64.33411396      5.29111802    4.17927780    5.98963160
    1    8.40389306    4.77543734    2.37448075      2.98561851  -26.71405195  -41.06215421     18.90049981    6.02055004    0.39432113
    1    9.34100340    3.61212107    1.85913893    -40.41731139   26.30917110  -23.20629635     -0.98777124   29.74962838    7.30769201
    8   -7.80165118   -3.78465693    7.44549633    -49.59544599    9.21534470   31.47643922      2.72059355    4.31677979    5.15363121