 BEGIN_INFO
   #
   # This is a XCRYSDEN-Structure-File
   #
   # aimed for Visualization of geometry
   #
   # Launch as: xcrysden --xsf HICOLM.XSF
   #
   #
 END_INFO
 # estrutura final
CRYSTAL
PRIMVEC
      20.47093048       0.00000000       0.00000000
       0.00000000      20.47093048       0.00000000
       0.00000000       0.00000000      20.47093048
PRIMCOORD
  927    1
    8    4.45330710    3.08205293    1.87034856     12.59304228   18.20773645   35.48355950      1.65286993   -1.88239386    3.64832566
    1    4.95026148    2.93731448    2.75875846    -17.53522783    4.47815173  -31.18571527    -19.96272150   11.42073449  -47.33974081
    1    4.22602150    4.06253309    2.01940130      5.77349838  -26.47617059   -6.44063665      6.24712655   -7.94605273    0.67749497
    8    9.17981988    7.23580729    0.85333281     11.03449768  -14.59360904   11.56420703      0.69444044   -3.36849362    3.41777280
    1    8.43127936    6.72576099    1.23343248      2.55367453    3.54369138   -1.83633090     18.02768644   19.95248300  -12.06412698
    1    9.96839611    6.77459879    1.28334100    -13.33052292    8.79477946   -9.56073209    -32.51295451   21.68058378  -19.14736549
    8   10.10842841    9.79761993    7.03429552     47.10971473 -107.31006237   74.08535926      2.22700897   -5.41904454    4.34447033
    1   10.15300874  -10.21038431    6.32951442     -2.81314763   76.63576765  -97.34363809    -23.25266171   74.09736740 -103.56883619
    1    9.42214821   10.17651686    7.51734555    -42.42338997   28.28484342   23.78738922    -55.52665291   14.96190912   31.90072534
    8   -0.90048612    6.72853463   -9.29515864    -51.83871626   15.32523774   15.19493845      1.19711509    2.20955418   -1.31893201
    1   -1.57788701    6.87286628   -8.51875925     35.32520230   -6.24227939  -32.69676573      9.02486861   -2.26596751   -8.75349255
    1   -0.14291799    6.36397991   -8.83701780     13.74213256   -7.47869398   14.09037027    -19.62710468   -5.89907928   -0.80772199
    8   -9.02435615   -9.00132465  -10.10396368    -29.07313068   44.14861197  -21.47994176      1.11711664   -1.69675935    1.58601799
    1   -8.57322028   -8.47642080    9.61752050    -17.50488846   -9.66990049   30.24582737     -2.04459398   -3.20686737  -14.68500396
    1   -9.94423198   -8.50658998   -9.98028522     49.48529372  -27.52720789   -7.36443730     -7.28216765   -1.69792609    7.37765764
    8    4.62758820   -1.65306715    7.27444847    -64.65877894  -26.06894999   10.21668222     -6.07493887   -4.68492330    0.57558250
    1    5.25241156   -1.00379564    7.38432213     44.63139396   45.79375393    4.13375883     16.42667692   15.68049999   21.62133792
    1    5.09254873   -2.30734132    6.76131406     16.94777201  -16.20882711  -16.17420663     15.42561469   -2.89770188  -23.27365921
    8    3.20542914    9.73693924    7.10011139      7.19330733  -28.36144617  -30.20102726     -2.46629094    2.05722746    0.87652257
    1    2.44071743   10.03977146    6.56097600     -2.86858144    3.80189856    0.82777319     22.28121335   -8.44680198   16.80630391
    1    3.08846204  -10.18575701    7.85612764     -3.41818950   22.84256089   29.64985350     -1.79176823  -16.52213798  -27.99762565
    8    3.64319364    7.61545231   -5.28253005     39.16958070   38.99583573  -13.90786252     -3.00003194   -0.65219810   -0.29458619
    1    3.82189035    8.62349058   -5.16552471    -13.80440308  -39.64971984    3.35934784      0.33486674   34.23759811    6.07770179
    1    4.31173374    7.45284904   -6.03145601    -23.00247229   -0.13719365   16.61698957     23.16645774  -18.46595601  -19.01226254
    8   -2.56620371   -5.96084791    9.15783760    -32.28475151   -5.32533554  -32.31955682     -2.65320558   -1.75078979   -3.32700598
    1   -2.59936942   -5.12157116    9.60852820     -3.75214838   27.85915681    9.83526625    -20.65182838   60.26974468   38.17594030
    1   -1.87451149   -6.33021061    9.66084517     33.83294987  -24.30131619   20.89879375     49.06931397  -21.46660538   23.55680113
    8   -2.12810282    2.02632822   -7.14038337     43.10190607  -15.69181841   48.63753590      0.33915157    2.99045478   -0.15580843
    1   -2.45383312    2.71703445   -6.57041113      0.12089795   13.86089493   16.65313591    -11.46945097   15.83648253   40.67819571
    1   -2.74184158    2.12832392   -7.79747990    -39.20258339    2.85337667  -57.31737887    -19.94607860    9.47744156   11.60265551
    8    1.52364780    4.96249287    4.25568385    -25.57011246   37.72543301  -72.08405603      1.74024632   -0.96319420    0.78842397
    1    1.60171231    5.74818962    3.52060084     -3.66925855  -57.81199357   48.82100518     -1.70234993    0.92648774   -8.07173764
    1    0.86851846    4.35617841    3.74660111     29.54453860   24.49483098   19.30743054     -5.23542625    3.59254194  -11.33534980
    8    6.91843000   -5.83543301   -5.17545213     13.55072328    3.69576713   -5.41572848     -1.84606102    3.25662447    1.06675726
    1    7.83408517   -5.82420976   -5.59017916    -21.20493991  -12.11108403    9.50251701     45.74845336   -1.21074438  -29.25777164
    1    6.71611093   -6.78084372   -4.92539250     13.20877808    7.64518958   -2.85504385     -3.69601927  -27.93970817    3.02056748
    8   -8.72122379    8.49865712    3.19270376     11.66008140   -0.33732408   -8.58127451      1.10451402    3.00502737   -1.43469507
    1   -8.80266403    7.68909061    2.64527661      0.10934067   -0.42016443   -0.95182860      1.09017585  -30.53044773  -20.67631936
    1   -9.08164426    8.15022694    4.02594615     -4.07502583   -2.17798933   10.92257906    -19.26334323  -21.87071030   43.12077835
    8   -2.32727614   -8.44601738    3.13968627     44.71175442  -25.25256302   33.61522310     -1.45737114   -2.99571692    1.60229547
    1   -2.87846970   -8.91596360    2.55731300    -24.25447591  -29.61726978  -25.79349122     -6.23083985   12.40314485   -1.11733134
    1   -2.68628153   -7.61626131    2.95960033    -17.28533722   53.17422175   -5.55073021      1.94674961   20.16995833   -1.07677970
    8   -1.60603283    4.26509431    6.40652889     26.94897312  -22.93152953  -22.31089749      1.06581487    0.52455596   -1.63148808
    1   -1.31834336    4.68541863    7.23889846      1.35417238    1.82738487    6.62543988      9.93146709    2.88446536    9.91245614
    1   -0.75381157    3.75564761    6.16608792    -29.91943670   15.74654224   10.96257339     12.04197692   -6.69902696    0.50934655
    8    2.70391735    1.01411664    1.58537622     53.32298583   45.74606565  -82.44586093      0.15928741    1.11164967    0.23566660
    1    3.41640369    1.81612313    1.67581642    -53.07642732  -56.49452851   -6.58957296     -6.48255330  -14.94756324   -3.83205243
    1    2.67695734    0.90383645    0.50479570      2.31318940    8.54514825   86.12006843      5.40490739    2.49977869   16.47843146
    8    2.31826574    2.23835908   -7.70544294      9.65041815   -5.55913714  -16.55534639     -3.11291169    1.64468637    3.25338568
    1    1.64932677    1.63769278   -7.37264994    -12.27449812  -15.33152943    3.36933987     37.10774576   34.85810385   -6.78392875
    1    2.18074104    2.91670898   -7.04814995     -0.46632739   21.94172099   10.27382433     13.84651043  -38.70826144  -35.84763027
    8    5.96488020    0.01951000   -7.57776220     -2.37421044  138.24596339   18.94134740      1.03596935    0.18406921    1.68209738
    1    6.46137001   -0.46235158   -8.09026199     54.51468852  -67.48638620  -58.81854068     -7.04382513   -5.82805893    0.81759616
    1    5.43742968   -0.55097997   -7.17907900    -52.74542036  -69.70768383   38.22516303     -5.13910440   -3.75438953    1.97578521
    8   -0.51189748   -7.06458904   -9.94681481   -111.90178887   54.60927842    1.63568024     -1.34726807    0.52055891    0.56852449
    1    0.21772657   -6.64208738   -9.67266009     73.19502793   33.62092644   25.54980505     18.36644227    5.39332367   -5.85208558
    1   -0.22980815   -7.84241045  -10.23338211     38.95373740  -82.31849945  -27.69246372      2.05118065  -10.31829142    2.84457240
    8   -4.02942009   -0.29264045   -2.31229387    -59.95454864   42.10545620   27.15768201      2.58517740    0.65444561   -2.50247980
    1   -3.87856423   -0.70756878   -3.10304203      6.35708643  -31.30209400  -55.98397112     14.35711969   24.70931611   43.08265614
    1   -3.23014759   -0.48323755   -1.90757821     49.68652194  -11.95920923   27.21069507    -36.86868555   19.07934485  -18.38943185
    8    7.02676649   -9.82254451   -6.77371238      7.67351810  244.94526904  181.86851559      0.33295675    2.39399940    2.39037213
    1    7.57212450   -8.79466145   -6.52521541    -44.40576685 -171.24531451  -62.03105911     50.47060610   57.64857636  -38.66500783
    1    6.55096252   -9.50623096   -5.80019291     40.06191382  -70.44350008 -121.25449823    -26.73071186  -93.36305700    5.56232252
    8    1.77969343    4.13191110   -5.82742346    -16.98023712    6.70982037  -83.10146490     -0.83973398    0.14848089    2.25195670
    1    1.05935714    4.14480760   -5.27318375    -48.75102854    3.16313564   32.18821043     31.46681575  -19.70594107  -16.85331403
    1    2.43588789    3.98386010   -5.25341248     63.69632247  -13.42648842   53.16865247    -33.58046184   22.16449725  -25.91201688
    8    6.28684939   -0.57458435    2.61137878     14.91252023  -33.54718865   88.05012459     -0.51241552   -0.86764206   -0.42711365
    1    6.66955398   -0.11886551    1.95019988     31.17496241   41.20409740  -65.03567140      2.86317176   -5.71780279   -4.94718483
    1    5.48004724   -0.85602343    2.26209048    -45.53213870  -12.26504999  -23.32949800     -6.03989090   -5.99535953   -6.31993265
    8   -5.42085240    2.17332770    5.19703547     50.38124709    8.01512546   -3.98470953     -0.96224353    1.30507280   -0.90173733
    1   -4.98135219    1.97751450    6.08704235    -11.57719333    5.00838757  -22.03420372     -1.59935584   -3.47931806   -0.94750577
    1   -4.55132358    2.40729003    4.67685579    -40.52773553   -9.70096557   24.88664532     10.12158834    1.53401703    0.50848159
    8    2.27120960   -5.34559358   -3.09992641      9.84946511  -11.28903125   23.50952091     -0.09773936    0.80649968    1.57182907
    1    1.91325995   -5.08964053   -3.93626697     -7.00226376   13.70580707  -29.35061761    -22.49573119   14.49927178  -26.90301382
    1    1.48594690   -5.79480604   -2.73610631     -5.15963312    0.30227546    7.48775074     18.09920925    3.96789040    2.59742645
    8   -3.73613921    2.33680130   -9.25875604    -24.74631824  -26.83204353   42.58590372      1.93878833    0.15050543   -3.61066206
    1   -4.05076740    1.56459975   -9.76120069      0.49936177   -1.61356413   -9.17156391     18.57423484    3.61328583    8.73217777
    1   -3.35726553    2.87861840   -9.90468564     17.84172336   26.70800849  -39.44265620      6.91998855  -15.54523034   18.43506816
    8   -1.30574228    7.22802369    3.79455863      8.65786517   -9.20905436   15.29804932     -0.91055106   -1.32802696    0.16780154
    1   -1.14620149    8.14315136    3.51839895      1.06937544    7.33947586   -0.64812090      3.64386717    9.34930607    0.10619379
    1   -0.74039092    7.16375288    4.60353603     -7.23876001   -0.72556708  -10.24819748     11.75663192    0.60104208   17.98620012
    8   -8.76575229   -5.49665886   -2.02023889     -4.19986851   57.65988382   47.85985778     -0.18629434   -2.26051396   -1.62145211
    1   -8.92713429   -4.72647293   -1.28136924      9.56667435  -48.16075006  -48.93764227      2.32225637   24.27819975   24.85100637
    1   -9.39545423   -6.15410381   -1.66764893     -5.53278275  -10.20810866    0.53754840     -4.60058649   -8.33869752    2.34682522
    8    2.89384858    5.95199357   -9.87185556    -57.80691411   83.35901680 -201.88777620     -1.12132660    0.82572613   -4.09174545
    1    3.55608861    5.68247845   -9.58767099    159.79740310  -69.19075054   65.96139378     52.93696424  -14.53879803   24.29708920
    1    2.41205954    5.88067003   -9.23854409   -100.96839972  -18.17784860  126.71704913    -17.08243749    0.02398691   27.26728890
    8   -1.30309621    8.78592670    9.40176801    -11.68824641  -24.11935567   23.52410223     -1.10710857   -0.42179132   -1.56958948
    1   -2.25603957    8.87390046    9.70035227     17.53636644    0.24366020   -4.52451609     -1.94852474   -3.65315371    7.73122530
    1   -1.02776645    8.06400429   10.06514967     -5.76549899   21.18181194  -19.52151949     -6.65098968   -4.43424665    1.29502217
    8   -3.22857062   -1.79375704   -4.49336128    -14.58453668  -29.16717380   46.63355649      1.59736365    2.83378902   -2.38262493
    1   -2.30592895   -1.67726674   -4.35318684     29.43698389   -3.54392154   32.14983749    -33.82453797   16.24498052  -19.53996087
    1   -3.10965403   -1.43559149   -5.30745364    -21.24037095   28.37765072  -71.90236790      6.61119811  -10.40295921   51.55506801
    8   -8.45756551    2.70584490   -7.65864775     36.30307088   42.41235864   11.22416286      1.72708869    0.11683580   -0.08398152
    1   -7.57026866    3.23932516   -7.80209415    -39.63995138  -37.41807288    1.24912971      3.62673647   -0.23449835   -9.20642013
    1   -8.78639809    3.25439658   -6.89136416      2.68898661  -10.10997981   -8.28000805    -24.90510578    2.19367937    8.53930809
    8   -3.15936117    5.47067661    3.16765337     23.56172001    1.14833182  -18.38520120     -2.60381320   -1.71466683   -1.81171304
    1   -2.43052322    6.12039257    3.45389493    -16.24939137  -10.99402806   -8.48343133      1.22562819   10.17166197    6.43822968
    1   -2.77970921    5.14034510    2.28042567    -11.20165508    9.98237531   25.24479319      9.36792873   -0.43974375    3.98182648
    8   -4.73467814    5.71910871   -7.11312743      4.57468533  -14.04307340   -7.65491004     -3.08188451    4.21752322   -2.15116358
    1   -3.92310033    6.20991257   -7.34594883      3.62790040   -0.00629426   -0.74385208     -5.82295033  -19.30361192   -3.15445264
    1   -5.23844057    6.41628543   -6.68542187    -12.43503546   11.59615522    9.45394905     33.54288922  -10.12435738   -4.08053114
    8   -0.81731897    8.97027591    6.79160460     35.60853044 -117.69312179   77.94813545     -0.43362630    2.41396278   -0.00900240
    1   -1.00395551    8.83895537    7.88069491     17.24663364   14.87844072 -102.46283861      5.36258540  -10.41381413    5.79811419
    1   -0.32250948    7.99501635    6.54860329    -51.09847982  100.75055236   23.03150998      9.83577359  -26.61041368   -1.03392052
    8   -9.06909966    6.14143463    1.86815033     31.30173447  -22.89044195   -0.69091274     -0.79641767   -0.01612266   -0.76372128
    1   -8.19320217    6.16588494    1.35177573    -25.60169949    0.56926818   17.94269562     -6.60681426    0.47617663   10.88395832
    1   -8.90830043    5.33412308    2.47378403     -5.07088662   23.92101320  -16.44121345     -1.59596153   -5.53488203   -5.55181765
    8   -3.75209681    8.83900076   -9.79350536     14.49721987  -17.08174483  -22.22711773      0.64389438   -1.77485756    0.57010850
    1   -4.27983559    9.61627569  -10.01663186    -10.81976603   11.40771274   -0.09752414      5.93349531   -9.68254337    4.12384097
    1   -3.76237739    8.89385942   -8.84332086     -2.63485944    2.76764504   20.60199539     -2.01063997    6.74833449    0.33911675
    8   -8.35240286    9.34605350    8.81634243     43.23735909  -26.55225575   11.96332023      3.46721778   -9.39611749    7.08218219
    1   -8.76032249    9.45941889    7.97883958    -31.28730505    6.36284173  -20.36580855    -24.87377727   57.01828718  -98.09080807
    1   -8.50764445   10.15390249    9.29418545    -17.65796551   16.59283882   11.22773211     -0.63388390   90.62114249   13.91127468
    8    0.72436975   -1.01427877    4.61286560     10.00527392   19.96015238    7.31938763     -1.05340452   -0.13627466   -1.53826811
    1    0.75850543   -0.11693721    4.18814762     -2.92683445  -13.76582758    0.87801581     -3.34973416   -3.72067524   -2.21604616
    1    1.33908637   -0.82883327    5.37493945     -6.85572857   -7.29548615   -7.74457732      3.87345728   -1.41823901    6.21212368
    8   -4.11209299   -9.02550021    6.33027308     11.19876247    7.65931586   -5.28472644      4.26707757    4.27316218   -3.95188884
    1   -4.85994210   -9.52153256    6.68738531    -13.79240099   -7.51552783    6.79233800    -78.76037990  -60.18023380   43.91444620
    1   -3.59612340   -9.78821680    6.02031201      2.98749521   -2.83138324   -2.59213688     18.31644869  -23.74999167   -8.98234309
    8    0.27116052   -3.40156212   -9.05453832      5.74592577   -0.32933726    5.08435679     -0.91874722   -0.06323182   -1.87262028
    1    0.49962305   -2.71464802   -8.39654347     -0.85487923    6.34548362    0.28580464     -8.97829113   12.57169139   19.04401264
    1    0.79773792   -4.14604841   -8.69359850     -7.39288773   -3.08351201   -5.51259179      8.98447835  -18.39294957   12.08578532
    8    1.94224534   -4.63570524    5.51941504     11.43703219   -5.18945729    0.13306957      0.58211406   -1.55787776   -1.07179361
    1    2.37272330   -4.79425462    6.39215848      0.77113641    0.95637519   -3.27977676     -6.56820599    3.29067007    2.47626312
    1    1.13197481   -4.21244466    5.83269039    -11.10353975    5.16983538    1.50266380    -12.03661107    4.19734503   16.01500949
    8    4.72312219    1.80331848    9.20278815     47.96461763   18.19139721   23.57156677     -2.50319132   -2.22396713    0.27652754
    1    5.11051424    1.24218356    8.50934171      5.35858152   -2.02732026   -3.57823566     10.15294534   19.06160472   -1.14715211
    1    5.61159069    2.06632619    9.69274146    -46.73492031  -13.90828228  -20.28135039      1.89784296   16.46107147  -13.46672270
    8    8.82550230    1.55380061   -3.90906528     39.66198279    6.94819184   68.44497953      0.28092113   -0.45517127    2.93983170
    1    8.50517805    1.54209177   -4.75826262    -29.97043935   -5.13281678  -63.97944551      4.24892712   -3.59957484  -16.24906408
    1    8.15662139    1.02308668   -3.43549649     -9.76146489   -4.89905745   -1.72865420     -1.02694756    1.63300645    7.25270374
    8   -9.84953349    7.64393764    5.48132990     21.92702108  -44.76909710   27.63536048      2.85609345   -3.31042741    1.22618865
    1   -9.97602169    8.41050013    6.05054899     -3.45882730   14.41892455    8.97014480     -6.79542660   26.81173591   18.42776839
    1   -9.39843771    7.01778581    6.17687124    -17.08060264   27.42490185  -33.16275594     -0.00077975    7.46240293   -8.90115436
    8   -8.29120400   -2.68144562   -9.13726968     27.64151143    5.76694614    3.96050666     -2.00829416   -2.31547600   -0.68336938
    1   -7.50409878   -2.73997243   -9.73733895    -11.18440638   -0.56486332    2.74306419     28.41072039    1.80463110  -33.24105319
    1   -7.95174225   -1.94104539   -8.56264257    -15.01128247   -9.75956648   -6.98505599      1.64732968   26.61812867    8.42831419
    8   -7.60815619    4.25263347   -3.41482112     18.25134612  -12.55605846   20.95113077      2.06687521    1.57892611   -0.67511777
    1   -8.22863985    4.51529995   -4.07841224    -17.27829420    3.28357727  -22.97745580     -6.77252473   -5.88220143   -4.99983439
    1   -7.09052633    5.06712970   -3.31470633      3.22063504    7.42246431    3.91324803      0.42627053   -1.77178268    2.96770341
    8    6.20390518   -8.18886647   -4.12958321      9.67073959  -48.74970839   26.81224053      2.14939893    0.33883944   -2.15869228
    1    5.47100376   -7.75181298   -3.65141832     -6.59151377   -1.01954148   -0.59849341    -17.73925693    5.64518722   -1.12011045
    1    6.31976641   -9.01240673   -3.51538408     -6.06622930   39.53430126  -30.83135319     -0.77053223   -0.72812178   25.02513649
    8    3.41986346   -2.24260203   -8.89907577     -1.86631396  -21.23534203  -52.85122085     -0.99203532   -0.56792255   -1.30709635
    1    2.61467998   -1.79902023   -8.66711447    -21.12579725   14.01626002   10.00342621     -0.34948783   -1.46782511    8.67505558
    1    3.87848707   -2.18476252   -8.09155005     19.51823278    7.53128688   43.00280244      0.06403558    3.27564253   13.15852324
    8    9.95968113   -4.05173591    6.00650658     11.76273706  -47.13702602   57.99629875      1.53849692   -1.97083023    3.95356149
    1    9.44744772   -4.85251957    6.48125076     31.56414177   48.24334203  -30.15036231     31.93886893   41.68752105  -26.78069662
    1   -9.64014270   -4.03942209    6.57621582    -40.19714089   -3.34850789  -25.63676933    -38.20193078   -8.94995771  -14.90923929
    8   -0.87265994   -0.64598532   -3.66967083     -0.61777816  -58.69852741  -82.07681315      1.04253924    2.03838448   -2.38217004
    1   -0.64364659    0.22223498   -3.83221120     11.45573314   58.46324478    3.61760387     15.28197070   15.66397630   -1.31919121
    1   -1.01233733   -0.71760777   -2.78417491    -10.97535999    3.78040069   74.88418708     -0.72682977    1.92452784    5.45019896
    8    0.03296099   -6.43164515   -2.00921843     67.68167401  -30.31993918  -11.36371325     -7.48578906    3.70543980    0.16330318
    1   -0.52905311   -6.47184122   -2.76091856    -27.66625715    2.73699704  -29.01863985     36.49483258   -3.85493995   67.99318136
    1   -0.50881919   -6.01164601   -1.39610190    -35.64293947   26.81430564   37.22795833     45.68193471  -46.51434785  -44.43596321
    8    2.93543254    8.06684065   -0.18236824    -44.31472180  -76.56406147   21.35379057      0.23505420    1.78267077   -1.05857870
    1    1.89404970    7.95800495    0.07080609     85.42128508   -7.47832761  -17.33374860      3.56736855  -32.40435100   22.92392998
    1    3.34618742    7.06316879   -0.18565753    -42.90173266   80.38812528   -0.39318552    -15.87404745  -22.15915025    7.39936738
    8    0.59529700    5.86235305   -2.02272952     56.59683957    9.62098621  -26.99307674      2.12670636    0.83927390    0.68585617
    1    0.03229973    5.52202461   -2.73959769      1.30956303    1.96631470    1.83892365      3.00473975  -12.13309952   14.79503101
    1    1.51355434    6.04254772   -2.50684030    -53.39620347  -11.56747056   23.56045998    -15.37927176  -27.29135967   12.58847881
    8   -0.42183347   -7.67072198    5.07821073     35.75127565  -16.79539096  -10.28156305     -0.62866397   -0.77070555    0.50201748
    1   -1.12038540   -7.93008426    4.49440957    -19.38368215  -11.50829639  -20.34031250      5.95483870    4.45537409   -2.91430854
    1   -0.90561330   -7.10220171    5.64148640    -17.84280015   26.84023756   28.22837334    -11.40794347   17.70795880   13.64942703
    8    6.57458975   -8.04955028    3.13129181    -69.05963098   15.40808160  -11.62583096     -0.12401879    0.40573472    1.05053054
    1    5.68467225   -7.83721213    3.66093186     52.19493738  -11.66888134  -29.66095651      7.90348895   -5.80259097   -7.17380320
    1    6.21765241   -7.96074014    2.15967896     16.59296331   -6.60935553   42.35275148      0.70739613    5.17455430    4.80361937
    8    8.70648135    1.36560808    8.61457327     31.97602130  -16.45399659   -2.40572247     -8.70653448   -4.37586528   -5.74559927
    1    8.61860678    1.47911399    9.53544847    -36.39299932   -6.30286834   25.70622316     92.05520844   46.40988880   41.99566781
    1    9.40895103    2.02860812    8.60764235     -2.54415979   15.59665957  -36.86211952     41.07314681   50.13147909   84.38652982
    8    3.96101697    3.70756828   -4.21632987    -39.93553339   10.04791929   17.35871815     -2.00741460   -1.31255942   -0.38240749
    1    4.73628952    3.77998921   -4.72982425     36.65788373    2.79375507  -25.04055958     -3.00252868    2.32662226    2.37562839
    1    4.22807487    2.97294770   -3.64081668      1.04473382  -10.26419629   10.92899577     -4.99423299   13.59877506   -6.65950175
    8    6.39379615   -8.09273959   -8.95332698    -20.86167642  -82.32305621   63.02953342      0.85358691    2.37103874   -1.17290540
    1    6.76708710   -8.79590075   -8.21470949    -37.36038076   60.44031282  -64.16225367      7.61891895  -19.37813916   58.56553812
    1    5.39516604   -8.42687017   -9.02416122     60.13933986   17.78747888    3.07331140      1.78396715  -30.31917448  -24.24760014
    8   -4.75105476    0.57613960    9.33299908     41.44535479  -42.39089370  -27.31766042      2.16021241    0.42011117   -1.80982870
    1   -4.29567560   -0.37879840    9.27106421    -31.85011025   57.47494750    1.45784116    -17.04351236   12.25705781    8.15401972
    1   -4.40044215    1.01557101    8.48365772     -8.85395431  -14.58246118   26.25294681    -16.51618988  -17.59161159    9.85372701
    8    4.62257113   -2.05940894   -6.51293619    -28.71729647   64.37697211  -35.96049341     -0.42220015    2.86352058   -1.65107292
    1    4.82789304   -1.94792249   -5.61209459      9.32220539    5.79192485   45.44757491     -2.26260046    0.50286373   -0.85448284
    1    4.86213789   -2.92636397   -6.61918169     17.50039069  -68.40389190   -5.04105219     13.58822906  -38.29658852   -5.06831102
    8    5.84072884    8.72512644    2.30661493      0.24460908   27.54457746   66.17759211      2.61075050    0.25533245   -0.77495628
    1    5.08913480    8.54263201    3.02395921     47.43602162    7.64473692  -39.85104040    -20.48638474   -0.91243091   10.95126727
    1    6.53394654    9.29040413    2.86247511    -42.58679068  -36.06308546  -27.79818891     -3.40036050    0.86532018   -4.43037878
    8    0.22944708   -8.96241409   -6.81480162     52.19434128  -10.13348964    5.76353085     -0.28405881   -1.21028119   -1.53030676
    1    1.24035572   -8.76736801   -6.68725809    -43.88876226  -10.60844531   -8.86596855     -3.62531087   -0.40271107   -6.41109854
    1    0.31263972   -9.76563612   -7.42331040     -2.91849145   17.26316602   13.79861902     -3.97323470   24.63565462   16.78865846
    8   -0.80557520    4.58459852   -4.53835171     69.18082392   -5.69478960   20.31058226     -0.25389010    3.53104280    3.47605361
    1   -0.95346799    5.51379483   -4.61989099     -4.99927787   31.74140428   -1.80384318    -17.26741072  -51.69685548   -2.48115209
    1   -1.66395343    4.32854485   -4.69825960    -62.82885200  -22.74584812  -16.14192943     27.88897549   12.18603456   -6.58620219
    8    4.96645123    2.52307602   -7.78905464     21.58805819   75.10894595    8.26894176     -1.82654969   -0.37970527    2.45252674
    1    5.32375510    1.68850890   -7.81522530     22.19366643  -61.93247588   -4.88787771      3.34228099   -6.36980761   -8.21968444
    1    4.05072490    2.34630205   -7.81118386    -43.47486215  -11.30509557   -2.46845803     16.37250765   14.60656935    8.56196096
    8    3.03979216    6.00414817   -3.22400291     64.26351907   12.13995789 -111.12153877     -1.97292860   -1.56159035    3.34418392
    1    3.34014530    5.08580263   -3.69708950    -19.47195081   64.76661014   35.20371097     16.65963987  -15.92973497  -29.67130217
    1    3.41769392    6.74187670   -3.98604277    -46.78162613  -78.65435585   77.09029225     14.68542219   36.79343753  -26.72191884
    8   -3.10798507   -3.20089835   -7.54253689    -26.98161970   16.05518096   -7.48175474      0.43021620   -1.73750192   -2.16353264
    1   -4.07817906   -3.42232033   -7.84197295     42.15139128   18.72873316   18.97470615    -61.44306715  -35.36826818   -3.57606152
    1   -3.05624297   -2.20279494   -7.29995000    -18.03256121  -34.31485886  -12.00165005     27.08436904   79.29134029   51.42563281
    8    9.75240035    0.93006741    5.12100609    111.53907085  -13.03020370   12.49589053     -3.13924460   -4.28725011    2.22010045
    1    8.89414187    0.98562893    5.02322143   -105.26554587    3.89144439  -10.92286118     52.35898113   -6.39946939    6.71522263
    1    9.86668759   -0.05506331    5.13331054     -2.47083874    5.25593858   -1.99908304     -7.52428426   45.34137582   -6.33504644
    8    7.16577650    8.74719200   -8.62207144     24.11427192    8.84338397   62.15740086      2.62025978   -5.47291786    0.32280918
    1    7.00514775    9.60984642   -8.09128904      5.20641420  -29.47243675  -17.98331630     -4.54830507   33.88256704   41.54236431
    1    7.76990688    8.30399529   -7.87516062    -27.68711006   16.47492962  -51.27902274    -28.89002612   27.24729322  -29.84257169
    8   -3.03001632   -3.54547906    2.90061316    -64.36525953  -45.87966426  -49.37071922     -1.54902997    0.86990770    0.15879754
    1   -3.37060436   -2.77354269    3.27787908    -24.70816665   41.34632903   19.36543053     -2.55897374   -0.58066039    1.58325780
    1   -2.21210191   -3.46763304    3.21312138     86.07427664    3.19578373   31.14711697     18.44508188   -4.05684773    9.37831242
    8   -7.32511185   10.11930597   -8.60260755    -38.89893695   63.08668438  -60.89030869     -2.23335143    1.77538030   -0.07082542
    1   -8.11783863   -9.82929661   -9.17055217     74.52199896  -46.48562163   48.29313035     15.06119156  -18.89870124    8.87802380
    1   -6.46025330   -9.96948642   -9.02548145    -39.10365908  -15.33122725   13.61214157    -20.23080695    0.45633749   21.62827269
    8    8.48793649    3.76014959    1.56343227    -15.09681097   15.81615010  -34.33427678     -0.12294941    0.31546548    1.39202663
    1    8.17240989    4.16504868    2.36333055     -8.06567877   12.45221348   21.56938926     10.59457404   -2.97109754   -4.71672277
    1    9.03930334    3.08489452    1.90737196     21.96011814  -26.90929443   12.47157618      2.63910790    7.51631435    8.67089651
    8   -8.20286482   -4.04338900    7.39092445     34.38516724   28.40584078  -29.58841464      0.31101645    1.56662890   -0.81689916