 BEGIN_INFO
   #
   # This is a XCRYSDEN-Structure-File
   #
   # aimed for Visualization of geometry
   #
   # Launch as: xcrysden --xsf HICOLM.XSF
   #
   #
 END_INFO
 # estrutura final
CRYSTAL
PRIMVEC
      22.19978787       0.00000000       0.00000000
       0.00000000      22.19978787       0.00000000
       0.00000000       0.00000000      22.19978787
PRIMCOORD
  927    1
    8  -10.67120226   -2.43571569   -4.21813415     -1.88516703   11.25198416   29.82546511      3.63676560    4.08483224    4.60080336
    1  -10.01862299   -2.33528133   -4.91710546      9.85697385    3.37238501  -10.89011139     21.46421119   17.85314608   11.07342961
    1  -10.22521305   -2.00502088   -3.44021082     -6.29216082   -7.97860391  -18.92604330     15.70625620   14.19948127    9.88200658
    8    2.84312918   -4.05969235   -0.86755943      9.73259450   41.60596150    3.43169045      4.19463039    4.88989429    3.83660348
    1    2.70557964   -3.88790389    0.08319631     -2.47078614   -5.33446876   -2.81117627     14.37831295   14.07495930   17.45987649
    1    2.58678527   -4.96533942   -0.98822757    -10.41655098  -32.13646850    1.34973062     11.88538116    3.94434189   16.48826666
    8    2.30027138    4.92355712   -3.65846310    -25.08854607   23.85282036   27.15519249      3.24007309    4.61936396    4.52182883
    1    2.80078690    4.17587574   -3.98080946     17.25443244  -20.02130605   -6.34164037     23.21110302    7.13125244   13.51939686
    1    2.45318662    4.90942190   -2.68980795      0.78267403   -1.34555605  -22.42358191     16.68999287   14.73778811    8.20887526
    8  -11.01444865   -6.07217197   -0.45487136      3.48713083   19.48584560   12.63041722      3.99315369    4.24058440    4.12552535
    1   11.03906566   -6.30139988    0.48375495     -0.37004234   -2.85777100  -10.99216488     15.72165897   15.37483942   12.54878710
    1  -10.77958689   -5.11578840   -0.41215573     -3.38540361  -15.83232609   -3.66627826     14.88758225   11.69919879   15.48155493
    8   -8.30349700    3.76016399    0.01377020     -1.24108641   -9.46034431   -0.39223235      3.66293946    3.32153008    3.72202266
    1   -7.80014881    4.46959218    0.41623086      2.26228086   12.79695259    4.90711281     19.38151245   26.13750425   21.18004520
    1   -9.15119646    3.79422883    0.49184271     -1.76698195    0.37726928    2.13263753     16.27111907   16.66938417   16.74465720
    8   10.21094147   -8.73145451   -6.62856136     -0.46408343   -8.99960705   -5.59623545      3.93763610    3.47301175    3.48359190
    1   10.47094770   -8.98183515   -5.72541358      3.13061891   -0.83903598    2.50828887     17.64409046   15.79131427   20.15961125
    1    9.97986650   -7.79802726   -6.53026714     -3.61890573    9.92967445    3.31240840     13.67026477   23.18368570   18.73378864
    8   -8.94205343   -4.74939117    5.03318703    -11.87892789   32.70371887    7.44731370      3.30690856    4.74741731    4.14261278
    1   -9.36329071   -5.59446582    5.22677872     -0.03032277  -23.01543043    0.60826479     16.77948935    7.83583206   15.66155731
    1   -8.00393805   -4.92624023    5.10934848     12.74555939  -13.62970111   -0.63746150     25.10839974    9.14983564   15.83328429
    8   -8.27320230    8.87936422   -6.72033550     24.10565960  -13.13572615   40.49131117      4.35894766    3.34685965    5.02505618
    1   -8.19537622    9.57559226   -7.34964683      2.28387002   22.05874521  -19.04567248     17.85088217   27.42553377    6.50909941
    1   -7.55669757    9.10134542   -6.05513990    -21.31900863   -6.47076368  -21.86284532      9.06933755   14.67173533    7.66576408
    8    4.02410136   -3.79760278    2.90287475     -2.03890920   36.32826760    6.47219001      3.59425957    4.77313413    3.93494552
    1    3.98456648   -4.72193785    2.65769236     -8.08911651  -15.83284626  -10.61591421     13.54233763   11.53628895   12.47635801
    1    3.18032298   -3.38783606    2.58364699      9.32985400  -20.61773102   -1.09848108     23.21646372    6.72739060   16.97293442
    8   -2.16216286    5.21831156    4.72702616     30.98390441    9.28629014   -3.45817405      4.62302191    4.02626333    3.90556231
    1   -2.41148787    4.31852306    4.98411219    -10.95950372   -3.52607294    0.34333062     12.58072351   16.39793531   15.31989711
    1   -2.97753141    5.69124419    4.61735349    -18.83735501   -2.29088448   -0.17838948      8.59481779   15.16921605   15.48677332
    8    8.67732251   -2.60050754   -7.76470641     -5.46981486    2.50047097   10.53902365      3.57208163    4.00735928    4.00767461
    1    9.64178294   -2.75604860   -7.75564882      0.74255725   -1.48683111    1.33818549     18.81141770   14.95348719   17.62252859
    1    8.48046472   -2.41683259   -6.82162413      5.37060134    1.90192992  -12.73104592     18.83011515   16.74580464   12.56072637
    8    1.14810581   -6.30688057    9.56186198     12.84275412   -5.79004221   -4.78244272      3.98719645    3.49596888    3.64769967
    1    0.69888760   -7.13250073    9.26956731     -6.12520028   15.12545511    2.16420820     16.74283939   26.59367056   18.91356530
    1    0.57734720   -5.57186499    9.27418750     -7.98588947  -11.76121875   -2.60872978     13.50690232   10.96348509   15.25016295
    8  -10.65524252   -1.65583161   10.39966757    -13.26141282   19.20941917   18.24027339      3.43636262    4.28150164    4.49704401
    1   -9.93484955   -1.08017134   10.05483199     -7.97589395   -4.28393041   -1.32380357     13.84465756   16.30406377   14.84955056
    1   10.95140675   -1.00568067   10.89215068     17.06781294  -16.28245415  -19.17710558     24.12241053    9.34718329    7.25324606
    8    0.69689753   -6.58746449   -3.92764652      2.47632005   24.23434779   15.32222953      3.99325804    4.38511524    4.32717321
    1    1.30711083   -6.43648592   -4.68512881     -3.02484139    5.74176644   -1.00969950     14.54432699   19.17228820   15.63796450
    1    0.58160496   -5.67210090   -3.54294397      5.64693346  -19.82205008  -16.44864353     18.52023220    9.48497485    8.95028138
    8    5.49729426   -7.13431218   -6.11367591      3.35826894   26.71840866    7.91852132      3.87799344    4.55370990    3.92416196
    1    6.02073629   -7.83686004   -5.68807553      4.21899491   -5.68292621    1.44266701     18.67978320   13.26142738   17.78188142
    1    5.69717556   -6.34062870   -5.55087748    -12.63174617  -20.60732230  -15.39361355     11.84277390    8.82265973   11.66103443
    8   -9.89774147  -10.41292653    4.99327893    -25.00573802    6.84289944   17.74654342      3.12525740    4.02155944    4.56274062
    1  -10.03987533   10.96260888    5.51383785      8.84169719    5.78225626  -10.15264593     20.01042543   20.19581774   10.25165711
    1   -9.04950123  -10.54620834    4.55890467     13.92389121  -11.71389186   -6.67852335     23.62852616   10.43216596   11.95292913
    8  -11.09443408   11.05142367    1.75218242     23.12122691    4.54179045   24.31043963      4.33697370    3.86183227    4.51413584
    1  -10.95191669   10.29731970    2.38737849     -5.05802079    9.74464148   -9.33037563     14.36113510   21.31845203   11.62173261
    1  -10.37472915  -10.50114961    2.00794718    -15.47102064  -15.47532864  -10.75659716     11.94382046   10.82445963   12.85870440
    8   -7.51734008    1.68421710    2.11189606     10.77776235   21.38547835   23.88292031      4.12303166    4.44976687    4.37572095
    1   -8.12835645    2.16389759    1.54468029      0.26752296    2.55321514    0.74096715     17.40172216   16.05017639   17.84731997
    1   -7.33763713    2.32945900    2.86676052     -7.71999532  -26.44125818  -24.86609333     12.66246892    6.41580740    6.63915561
    8   -2.86899781   -8.53015483   -3.10339597      5.90567405   39.45913565   10.66836471      3.83066494    4.84561892    4.18553852
    1   -3.72992545   -8.94797381   -3.23471637     -5.24104751  -15.15782868    1.23381147     16.68285928   11.81034510   16.93611584
    1   -2.21928981   -9.24414433   -3.15871391     -1.12095677  -20.56110412   -3.45712427     16.41944211    7.13797534   14.39872988
    8    8.76509510    3.73836027   -7.24977971     10.55838705   -4.50545080   31.66647956      4.14012474    3.83621763    4.58830892
    1    8.03302209    4.00963936   -7.79904119     -3.66218934    1.90298479  -19.78511993     15.59945394   16.15546587    9.41335097
    1    9.40898076    3.34388825   -7.84867963     -2.19751065   -0.69738258  -12.14375384     14.76720180   15.69469492   11.73704975
    8   -7.78187483    9.44181430    0.69526850     11.43588330   12.64655270  -23.12613240      4.30887244    4.01192806    3.08514153
    1   -7.79250357    8.52732264    0.38046942     -4.63162012   -2.16395898   10.50779336     13.96705257   19.05655976   21.41227439
    1   -8.10041691    9.39694964    1.59788334     -4.55877977  -12.15863742   10.27606549     12.83745994   10.77226943   22.62140250
    8   -5.91707197   -7.66968294   -7.62986001      9.21648609    0.56733659    2.90271481      3.96733340    3.88993266    4.02383387
    1   -5.40730899   -6.97959497   -8.07648689     -3.36825493   -5.18603058    2.26645568     16.23555545   14.66314979   16.24274806
    1   -5.23574990   -8.13267989   -7.08835660     -7.84688343    8.28182465   -5.78116941     14.14099447   19.25284572   13.70309592
    8   10.46075385   -2.99245469    8.29538296      2.24781356    2.13764470    2.72405573      3.80764767    3.73185340    3.76510583
    1   10.94970413   -2.43835417    8.94423184     -4.22271021  -10.36755788   -0.66574908     16.81171441   13.37639790   19.10013332
    1   10.68375365   -3.91361604    8.57455664      1.47063354    5.83997374   -1.79497012     16.66092967   20.42006720   15.32220547
    8    7.23826907   -5.54427046    1.93016344     25.80091738   14.60417204   29.59543255      4.46575297    4.27314930    4.60974305
    1    6.80269008   -5.36507892    2.80353457     12.03963415   -5.77774520  -25.18914787     22.05448159   13.58665798    5.51861185
    1    8.21212411   -5.38158829    2.12970541    -31.78961447   -1.89476549   -9.10900264      3.64033009   15.58390564   13.52945242
    8    8.94900641   10.46265924   -1.72867793     21.17119247   26.06836128    3.76384847      4.25265619    4.50790604    3.97690656
    1    9.85950750   10.33715180   -1.38026202     -8.49858410   -5.76797200   -5.13013872     14.89977891   12.93831910   14.69208240
    1    8.56449626    9.60177158   -1.69971951     -4.39339877  -19.12211324    2.51687707     15.02657501   10.25066291   16.69710621
    8   -8.47092408   -1.78975429   -5.85307533      7.71926899    2.89874507   23.09761171      4.02857554    3.77948849    4.38238912
    1   -7.99786567   -2.43590723   -5.25539389    -11.95727986   11.62873927  -15.36908610     11.12402388   21.98258898    9.86620757
    1   -8.20145203   -0.91163842   -5.48070541     -2.08274251  -16.87392635   -8.69058393     16.49462554   11.08069488   14.29498290
    8   -9.34011899    7.37707477   -4.43848220    -15.47474444   -9.10948144   19.33538191      3.35342440    3.76865155    4.48912788
    1   -8.43037295    7.08726869   -4.56553455     14.83085491    0.23038500   -3.51076457     24.51713131   15.14593265   13.67598403
    1   -9.50904891    7.94996312   -5.18265526      4.82910154    7.98091162  -12.93634535     18.00700578   18.86596423   10.39403667
    8    7.03833786   -8.92682080   -0.84276688    -19.72902130    0.63407110    5.75300857      3.16668956    4.02160977    3.86937702
    1    7.63162620   -8.99965037   -1.59722067      7.77020956   -1.47067977  -10.98234109     19.75972631   15.02771339   11.43970211
    1    7.62063934   -9.05896777   -0.08627603      8.98015233   -3.51574926    4.37725647     22.93028894   13.56410272   20.84198319
    8   -8.63268628   -1.48735239    5.63202081     21.73800015   -1.97231317  -14.20315163      4.50152030    3.68115153    3.62467255
    1   -8.81797493   -2.39851618    5.86801797     -5.62040839   -0.51722557    3.02444604     14.31624108   18.08855999   16.08486259
    1   -9.38649375   -0.98478881    5.95474591    -12.81864900   -3.14364847    4.33819516      9.76937014   15.29260722   17.71283616
    8   -2.73429494   -8.58532575    8.72151824     32.76166805   22.07846886   -4.48912526      4.66123390    4.47657423    3.82030554
    1   -3.50541678   -8.07113017    8.44552946    -16.00446901   -5.09934390   -4.72995199     10.32859791   13.92923129   14.01313662
    1   -3.03537117   -9.46878706    8.82331566    -21.89042652  -29.61473914    0.22418582      7.78903494    4.07176816   15.88701270
    8    2.72677248   -8.17701723   10.92031923     36.80963030   -8.09507229   22.65320230      4.76124041    3.48445924    4.48878491
    1    2.29149933   -7.57449752   10.33300683    -12.90876660   21.34447160  -11.95059833     10.62483112   25.81223463   10.62682745
    1    3.41886617   -7.60642604  -10.84368644    -22.48441050   -8.65882991   -9.62570464      8.44141561   14.91499349   12.68344896
    8    0.86668154   10.76301188    8.81256111     -2.76391673   17.17517878  -23.54732016      3.67393302    4.51618245    3.23883878
    1    1.81053693   10.60312410    8.77470976      6.34567401   -2.78784396    3.46119711     21.30165660   13.58526826   17.53456462
    1    0.58098575   10.24787766    9.56347951     -0.56227875  -11.18744304   15.79394645     15.70183792   10.19340409   23.28719723
    8    1.26722267   -9.05390594    2.59456154    -15.91214492   10.80265381   20.90453432      3.44110633    4.08833846    4.59823661
    1    1.96131436   -9.49711031    2.11037359     14.28322332   -9.64114346  -13.31541446     22.51877923   11.72468149    9.52350935
    1    1.36030128   -8.12461979    2.33495058      3.63683301   -2.25630320   -2.36031919     17.84411448   16.97872388   13.87007819
    8    0.35366311   -7.30783326   -8.94839384     -5.24900375   -1.84469632    0.63130057      3.47733339    3.77016160    3.94420284
    1    0.46012758   -6.48507810   -9.46396508      5.48422905    4.44211154   -2.32305065     19.41376680   19.07978639   14.27721336
    1    1.25003930   -7.44856469   -8.57373225      2.06597683    0.51745193   -3.21952234     20.41346372   16.52953800   15.29599480
    8   -8.62139606   -7.48552981   -7.77379597    -10.70874802   20.95567040   11.26461898      3.33639563    4.31209210    4.15513287
    1   -7.66393268   -7.57558913   -7.59069226      3.78164304  -11.67542883   -1.92003149     21.04547656   10.45067244   15.68442950
    1   -8.91983193   -8.38054516   -7.93378464      8.32232101  -18.07118942    0.36589758     20.48513095   11.58447260   16.52398541
    8   -0.03105989   -0.89059625    9.41424632     22.02669030   25.42624956  -16.61626653      4.51455766    4.37936054    3.26693505
    1   -0.68006892   -1.46806861    9.80968138    -16.24260477  -22.26491487    3.63960831      9.45686442    7.62697214   17.83698891
    1    0.21540038   -1.29578424    8.56974171     -9.38937545   -7.04790420    8.54850057     11.55570885   15.40976851   22.69187353
    8    3.40998048    8.84138091   -7.72723133     22.53896623   23.73260773   -9.03392622      4.30232437    4.51747848    3.58684613
    1    4.11299151    8.65913888   -7.05439143    -10.58954985   -0.68760652   -3.74505609     13.48784807   14.85760935   16.28209558
    1    2.79112231    8.14470538   -7.61236816    -14.40432022  -22.28217122    7.08801964     11.18278189    7.95866896   18.45718619
    8    7.66848056   -9.80589770   -7.54129499     22.60455678   16.80119535   10.73449939      4.39774290    4.30193910    4.04554839
    1    7.35671062   -9.60907574   -6.61646021      6.57894121   -6.91164394  -15.72692068     19.50976114   13.54779806   10.65546523
    1    8.64467661   -9.60530093   -7.48629626    -28.66944167   -8.23680072    1.84345634      5.07547608   13.00816241   17.98085671
    8   -9.95973519   -5.46341675   -6.49037113     -3.74394601   20.03128694    9.87801159      3.68228374    4.33866359    3.93490766
    1   -9.58525409   -6.27081728   -6.87307784      8.32126071   -6.46931533   -0.64851787     19.02771854   14.83493563   16.80337146
    1   -9.34844940   -5.25463465   -5.75055483     -7.55867884  -12.30610829  -10.04612292     15.50330131   10.94289939   14.39968571
    8    5.99147110   -7.04120026    4.36091051     -1.09060755  -23.94492449    6.14548138      3.79022093    2.88110737    3.96528199
    1    5.62122965   -7.54441534    5.13116802      3.02876105    4.31415651  -18.67782857     17.89068103   19.19458056    7.18952976
    1    6.21304305   -6.18412434    4.74205520     -1.16088330   12.89477270    2.28595238     16.38050899   26.16343295   19.94929706
    8   -7.60605948    6.69708090   -8.21050413      8.29597057   21.13097593   13.93544963      3.96534984    4.31137249    4.18407242
    1   -7.91186190    7.47287946   -7.66245261      6.15717340  -15.24344306  -10.14176744     19.30326777   10.99746698   12.64018860
    1   -6.62811274    6.79486582   -8.18469369    -13.83847585   -0.26820135   -1.32533073     12.27569310   17.05878066   16.11573627
    8    3.82463156    0.33532299   -9.21479467     30.81207931    1.37316423   26.83766507      4.66830893    3.79160524    4.48072213
    1    3.83392886    1.22302115   -8.78584413     -9.62974100  -11.25141378  -11.16710632     11.59986862   13.93738090   12.35855534
    1    3.09673400    0.37161984   -9.81238679    -24.90583179    7.18947269  -17.71490807      6.79994823   18.84427380    9.68854627
    8   -8.35467266   -5.58787776   -9.49772715     -5.51153345   14.63725046  -10.90646799      3.57398152    4.38352868    3.64233862
    1   -7.38019802   -5.61574294   -9.57956209      0.67814341   -1.71460936    2.93034315     18.87162659   14.47529897   17.33556442
    1   -8.54421844   -6.22145822   -8.77690231      6.23879382   -5.00348370    3.35767909     19.13943712   13.60640776   17.25768964
    8    6.94844360    1.17436481   -0.99286792     17.85760178    9.76156433   19.20662986      4.29763283    4.02570475    4.25608732
    1    7.15839568    0.35114825   -1.45496515      5.79480592   -5.89725031   -4.12745141     17.88788879   15.88094815   15.69493601
    1    7.74416230    1.34283390   -0.43199627    -23.98740505   -8.55292827  -18.40624742      7.92779880   12.31934777    9.41387039
    8   -3.71763013    9.86361895    0.07674713     34.69984779    9.00995261   22.89370679      4.73429302    3.98897303    4.42017331
    1   -3.66964244   10.80104724    0.40536860     -6.28462845  -13.22657675  -11.41196132     13.09348920   12.88930563   11.86069845
    1   -4.55299994    9.81100144   -0.35361756    -27.84948010    8.62001633  -14.41445130      6.09466410   19.58356422   10.77898123
    8   -3.43808736   10.64369898    8.96344911    -11.31026202    9.90806989    8.54114201      3.49494122    4.29374737    4.11576995
    1   -3.13928968   10.17758605    9.77417314      0.22380341    4.09095810   -7.40070687     16.13510414   16.90104619   13.91273237
    1   -4.32928584   10.99747621    9.20089786     11.39515779   -4.81005329   -2.61295887     22.56872612   13.01569760   14.36834573
    8    1.25506773  -10.71796634   -4.77739821     -7.01308703   37.26837766   -2.97807246      3.56748862    4.84196720    3.88961422
    1    1.95666751  -10.02198376   -4.88593398    -12.77496709  -17.59464162    2.05057053     12.67552823    9.62253474   16.45740045
    1    1.75848471   10.66248844   -4.73254221      9.07357298  -14.36501908    0.06835094     20.48136445    9.77098392   15.72961673
    8   -5.46118752    3.09779615   -8.43795387     21.82838802    2.31468162  -13.27428377      4.29061623    3.92255493    3.25350556
    1   -6.25985855    2.87190840   -8.92977728     -7.52197679   -0.01424218    5.14488864     16.81093627   16.92869380   20.04489845
    1   -5.73349431    3.13343845   -7.51598976     -9.81225383   -0.49077528    9.43739037     11.06304041   15.68244764   22.81742095
    8   -5.92881783    3.63049974   -5.70882731      9.76212367   27.93035461  -13.22763902      4.05424626    4.62298870    3.64999128
    1   -6.86764999    3.71195959   -5.44015449      4.23102176   -2.46334445    1.85812921     19.67732045   14.75019703   15.96296232
    1   -5.65721443    4.56508488   -5.93931428     -8.12178646  -25.75733289    9.80084696     12.45018744    5.75660114   19.81577000
    8  -10.09171636    0.57989554    0.41015485    -21.19005554   32.96792539   -1.16288954      3.15773737    4.80086954    4.02038330
    1   -9.19870880    0.35105337    0.17428735     22.07606067  -12.92112960   -0.11435203     28.03071342    9.48299592   14.74498281
    1  -10.44640994   -0.21581064    0.82336286     -1.92017014  -15.59494891    4.23325224     15.44308498   10.29525340   17.00772465
    8   -7.57560176    8.50159271    3.24177526    -12.95118792   13.32087144  -10.51416021      3.37167917    4.41521508    3.66148385
    1   -6.65109132    8.34601369    3.07475541     19.13466556   -4.96708492   -0.84517789     27.10969401   12.62806224   15.05380023
    1   -7.78694173    7.89686964    3.95238401     -0.99727266   -9.94787196   13.13670753     15.56212231   10.83115345   21.72852323
    8   10.73165996   -8.20025117   -9.26131687     16.45009695  -12.62796283    1.38269648      4.47470096    3.55303936    3.79651657
    1   10.10130674   -7.47749364   -9.19549921    -13.09159713    7.43653622    2.97521985      9.10946629   20.00858128   17.88702462
    1   10.79916513   -8.52992558   -8.34139580     -7.49273527    5.43566882   -1.00021170     12.31832190   17.97246992   17.29230612
    8    0.15298891    4.82402772    3.24911773     29.79785854    0.63425140   -6.45108445      4.69328445    3.66235056    3.68002361
    1    0.76175866    5.60435062    3.25381673    -10.97715079   -5.95770766    1.99595461     12.62951778   16.51623473   17.24466427
    1   -0.61016815    5.14319929    3.73686008    -14.37618065    5.36825720   11.90357254      8.89885075   19.48902613   21.70679070
    8   -9.36232458    3.56836953   -2.41386576     29.06370061   -7.05361352   30.03119013      4.67906329    3.64127842    4.54457335
    1   -8.90500957    3.67351475   -1.52308674    -13.94484267   -2.29737428  -26.06340712     10.43769633   15.97491532    6.85411560
    1   -9.94241512    4.35895853   -2.45755506     -3.99635653   -1.56464856   -5.37709436     14.08359512   16.06893090   14.44747748
    8   -2.32847323   -1.05429456    1.97759427      8.39703568    0.53368283    9.92057019      4.26247450    3.86586893    4.05172470
    1   -1.80035527   -1.84370059    1.72967407     -9.29460420   14.88505252  -10.73997071     10.41295641   24.12684896   12.22657212
    1   -2.31808009   -0.47535115    1.16961223      0.35704445  -17.73232209    2.75121663     15.86373137    7.69562985   18.31371043
    8    1.75723212   -3.05521085    1.53690729     54.41378212   31.38364336  -13.35672640      5.39605466    4.80697571    3.59296504
    1    0.92165626   -3.39238187    1.71504793    -50.97430959  -12.67738596    9.32890594     -6.08909356    9.89430961   19.69212777
    1    1.59811177   -2.10793626    1.25796133     -1.69672235  -20.36124058    5.87921409     15.37962000    7.23535438   18.36453728
    8  -10.62710838    1.30319987   -2.17790372     -3.68273164   -3.61388959   17.16020799      3.70946287    3.55860257    4.25616272
    1  -10.75541012    1.26195814   -1.20035496      6.25655611   -2.37148353  -14.76546466     18.83258133   15.96476607   10.96129632
    1  -10.18854318    2.17694650   -2.29747674     -0.62437041   -1.79449487   -0.71840344     17.09295262   18.42231516   16.37243244
    8   -5.76771019  -10.05850664    9.32992185     59.99152785   -8.04714454   29.68916349      5.47457271    3.45272175    4.63328648
    1   -6.53992460  -10.36006164    8.88651004    -41.47463750   -0.78017840  -22.22302457     -0.19138291   15.86612781    7.20058087
    1   -5.93209891   -9.12866463    9.50402630     -9.29500446    9.91088983   -0.99086655     11.19368710   23.77623894   15.99223459
    8   -6.98849639   -5.53509272    8.87674420     34.27381937   10.35374778    6.60972269      4.72470108    3.96355173    3.98157397
    1   -6.86936680   -4.67456642    9.33333155     -2.09723434   -6.46651816   -3.72025764     15.10106578   16.60543679   16.05515486
    1   -7.91792862   -5.63809242    8.81928949    -29.04202198    0.32458871   -1.22193616      5.22417650   16.27119074   15.40358768
    8    8.32287698   -3.25255300   10.18638269     11.67124893   -5.33733201   10.00045663      4.15421452    3.83185886    4.21141052
    1    8.86844239   -3.85222629   10.75019414     -1.58506477    7.18441032  -14.29649247     15.92406822   18.68074582    9.75334227
    1    8.95220256   -2.94199599    9.50593415     -2.81748297   -7.19167119    2.29776798     15.33895009   12.57386394   16.77929711
    8   -1.92887282   -6.38201368   -4.37417847    -16.67970653    7.55748744   -4.69620402      3.12689018    4.07309677    3.76734676
    1   -1.00029187   -6.28655796   -4.14140426     10.98923878   -3.00264937    1.65047178     25.15487345   14.52984368   18.15661563
    1   -2.25649139   -7.05037377   -3.74044466     -0.03633911   -2.49262070   -8.43208066     16.88002485   15.70828734   11.54622554
    8   -5.13918922    8.92200160   11.05481938      0.03590648   33.28588579    7.03945131      3.77690124    4.68375376    4.10849158
    1   -4.18019978    8.88408235   10.85203462    -10.56650344    0.55044932    5.86587003     12.79031974   17.13199189   18.32737275
    1   -5.25785103    9.86503765  -10.81699374      7.86163838  -34.80736575   -6.11824725     20.26501380    2.11044549   13.38681493
    8    2.34092410   -1.13302232   -6.64278810     11.02135281   13.18550145    3.07701814      4.14518747    4.04530843    3.90872938
    1    2.31748061   -0.45303195   -5.91277125     -4.58383274  -13.41676510  -10.76608518     14.66913751   12.87678864   12.86690474
    1    2.96849775   -0.74565497   -7.27566547     -5.41124302    1.62198383    2.15362165     14.21653410   17.65950962   16.80516061
    8    5.84121213    2.40082369   -3.22041749     45.61767752   -4.23980451   30.15573126      5.12346315    3.82898135    4.67931776
    1    6.66704129    2.54210688   -3.77139630    -23.48614091  -11.56686450   13.20226681      5.75401741   10.70559406   22.52340141
    1    6.20497871    2.08789348   -2.33560617    -11.95008083    8.44058758  -33.32714801     11.62761536   19.53374297    1.60856588
    8   -4.73782354    6.11907182   -6.29530039    -14.12718885    0.65324615   -4.31432679      3.42961378    4.05116682    3.73682948
    1   -3.79930201    5.80845696   -6.26597189     -4.80627628    6.79703188   -4.06802370     15.43182889   18.40311747   13.86503255
    1   -4.78450210    6.66304932   -7.11789186      9.74478522   -5.33645320    8.79606488     20.42562990   12.50710863   21.07542422
    8   -4.80614531   -6.99558433    7.72614952     31.94262460    5.45240219   12.50462205      4.63241559    3.84563143    4.03881681
    1   -5.40425623   -6.34906388    8.13201930    -12.75699965   -3.82543934   -5.52723708      9.78463778   15.60017760   14.49121738
    1   -5.36541285   -7.53783321    7.14594535    -16.70055150   -1.00537089   -3.78589623     11.85250053   17.59429634   16.64939790
    8   -5.13555551    6.01306988    3.76163176     -2.81038689    3.16002428    0.98030006      3.61967041    3.70001725    3.81288101
    1   -6.06313011    5.75056840    3.91307516      3.54778777    6.16569570    2.14808503     20.89540921   19.77415409   16.35332049
    1   -5.01812769    6.79861840    4.32645052     -3.55074899   -3.51779863    0.49294468     14.44939440   17.95991235   18.80561744
    8  -10.41001052    7.84404107   -1.67928743    -10.89002132    3.83661872   18.31286965      3.56244052    3.74771455    4.42941180
    1  -10.42549219    8.76239391   -1.32540812      0.27536003   -1.77478810   -2.99314521     16.53753886   18.75879818   15.23646257
    1   -9.77459590    7.89564960   -2.38748300      8.33103836    3.93723740  -14.40692260     20.17697207   18.29343731    8.94683965
    8  -10.71562818    1.12817783   -6.83781299     20.23202589  -18.50825451   20.90021659      4.48623111    3.47149827    4.44422302
    1  -11.02607716    1.57846392   -7.62113669      3.32475040    9.78333798  -16.16378773     17.51989059   19.37822433    9.71594689
    1   -9.76194984    0.90554403   -7.03877219    -26.77048975   10.66518741   -0.09117630      4.07376841   20.51549069   15.86653246
    8  -10.60807424    3.42171583    4.41541018     48.30918669   33.25099114   17.10782977      5.12630053    4.78793468    4.34062963
    1   11.07013874    2.65585668    4.59132073    -13.96419705  -31.87061445    8.97907235     10.67943504    3.15455294   19.56133363
    1   -9.88841070    3.39284881    5.11161186    -33.15976936   -4.70978907  -27.89956111      2.52204104   13.54777671    4.99404036
    8   -2.50766871   -4.10959447   -1.77261957     -1.25745826  -10.41389331   15.73542571      3.83712743    3.63578534    4.45532587
    1   -2.97670853   -3.33234409   -2.10825430     -0.45925834    4.69316276   -8.64531289     15.62050651   18.11891069   11.78295007
    1   -1.69304990   -4.13911519   -2.29681746      3.07625651    4.72102971   -9.97205859     18.15593784   17.96095771   10.62159477
    8   -6.96660489    3.60051133    8.61661857     12.02061525    5.41739096   22.32080445      4.01455487    3.94569017    4.33745101
    1   -6.11748224    4.10278494    8.63140602    -10.69168548   -9.87449511   -5.39950802     14.18068530   13.39974025   13.36180430
    1   -7.15742955    3.49028199    7.68880722      3.16651967    0.42379553  -13.25399284     17.91065880   16.38935447   13.40860485
    8   -3.82893808    9.91782294   -3.52900788     -7.95613454    1.12123711   -0.19378943      3.59518353    4.05113439    3.87974428