 BEGIN_INFO
   #
   # This is a XCRYSDEN-Structure-File
   #
   # aimed for Visualization of geometry
   #
   # Launch as: xcrysden --xsf HICOLM.XSF
   #
   #
 END_INFO
 # estrutura final
CRYSTAL
PRIMVEC
      25.00000023       0.00000000       0.00000000
       0.00000000      25.00000023       0.00000000
       0.00000000       0.00000000      25.00000023
PRIMCOORD
  927    1
    8    2.45874339   12.17867939   12.30388940  -2868.87478991-8997.74069585 2796.92868886      3.94089116    3.92485519    3.95571555
    1    2.53977558   11.36149058   11.82001456   2722.95614337 3056.20189466-4732.47915155     15.84437252   15.85821330   15.53471983
    1    2.03713357   11.92285559  -11.88045442    143.55531708 5936.83861640 1937.27347689     15.73724009   15.97785728   15.81174030
    8   -8.00713261   11.28184139  -10.79096861  -3952.98415157-9054.27397186 -287.88667784      3.93805422    3.92470632    3.94764420
    1   -7.56088642   10.44408858  -10.70416443   5468.97814993 2982.94200834  678.30063870     15.95843458   15.85517547   15.75945137
    1   -8.92215043   11.04419759  -10.91246243  -1518.35138381 6063.11986123 -386.33287273     15.66821196   15.98311234   15.71523120
    8   -9.33135160   -6.94920660   10.13510239   8165.70359677 1863.71080517-5185.86521012      3.96975949    3.95327307    3.93483093
    1   -8.51665743   -6.56200043   10.44308059  -2398.40204010  483.52418572 5756.87416452     15.63167827   15.75135722   15.97034565
    1   -9.17327344   -7.11326943    9.20958257  -5768.24321751-2344.17936675 -574.09948213     15.49173773   15.63393017   15.70743697
    8    2.08252439    5.98056639  -10.87420761  -6036.18101709-7779.77406633 -258.91038585      3.93260323    3.92804096    3.94772002
    1    2.31486759    5.05622358  -10.88450243   6059.46793878 1514.54635584  146.48917445     15.98296312   15.79418550   15.73736233
    1    1.12956457    5.97901359  -10.89319643    -16.14776345 6251.48340216   99.99070501     15.73060675   15.99093854   15.73543098
    8    5.76023839   -4.69744760   -9.89752761   -632.06019953 9254.39059439-3277.73302481      3.94674398    3.97260743    3.93982276
    1    5.19567157   -3.99956643   -9.57701742  -2385.16333951-3878.05873113 4289.06345386     15.63222878   15.57023294   15.90939039
    1    6.24827858   -4.29112644  -10.60831343   3017.24591079-5375.64097197-1008.62218648     15.85657538   15.50804264   15.68939265
    8    2.88755639    5.24825439    7.50489440  -6610.42735666  889.99800740 7238.84836037      3.93110356    3.95072586    3.96733545
    1    2.17237558    4.65696257    7.72258456   1659.89063765-3753.18383222-4717.02863390     15.80021115   15.57541225   15.53538488
    1    2.81421658    5.94613558    8.14993857   4952.44320469 2863.19825387-2523.74839082     15.93694720   15.85018313   15.62646928
    8    4.17553840    8.76437739   -7.53399560   6237.31208162 -855.11552747 7592.95622346      3.96471327    3.94616063    3.96825942
    1    4.14989956    9.22441958   -6.69960543  -5157.39264738 3038.27124663-1825.23235359     15.51712354   15.85743806   15.65548704
    1    4.94414257    8.20488957   -7.46530544  -1083.46480024-2191.93349376-5756.47164368     15.68628805   15.64026069   15.49224751
    8    6.60266640   -0.00022760    9.16270539   6812.12612726 7052.43500800-1035.46944945      3.96621692    3.96684553    3.94568886
    1    7.08443057    0.23864056    8.37571957  -3013.55442999-4457.12660857-3202.02393231     15.60614335   15.54620078   15.59831769
    1    6.93139557    0.60063157    9.82558258  -3794.39287835-2597.64677803 4243.91815640     15.57371998   15.62341335   15.90750127
    8   -9.36916961   11.69151940   -6.42399161  -3402.90880342 5146.14253552-7685.81823160      3.93949422    3.96186168    3.92828855
    1   -8.91724942   11.90184457   -7.23641642   5065.20911544-3058.78924901 2020.15195120     15.94164724   15.60423948   15.81517908
    1  -10.22719143   12.09371157   -6.52662742  -1657.96929397-2080.41850592 5663.81578983     15.66241851   15.64487344   15.96650863
    8   11.24150339   -4.40779561   -5.44186661  -8389.69485645-4381.59636219-2740.97030419      3.92644470    3.93693243    3.94122536
    1   11.03706358   -5.33873543   -5.43441242   5708.02714723-1241.93640643 2242.10008079     15.96836921   15.67969175   15.82440677
    1   10.44698058   -3.99989142   -5.77479443   2672.64457182 5629.84752260  491.14638469     15.84228987   15.96512213   15.75167818
    8    0.52920340   11.97751739    6.26447940   6720.78251040-6835.81153514 2274.84953976      3.96597999    3.93051404    3.95434880
    1    0.38260256   11.10740058    6.62490257  -6165.60526513 1040.49494532   15.54060262     15.47522890   15.77448807   15.73192316
    1    1.47653157   12.03363559    6.17549157   -552.08658930 5793.51259955-2292.56396192     15.70835032   15.97187418   15.63607085
    8   -8.45222961    7.83422339    0.42511539  -8815.88032152-3978.89938571-1873.85383322      3.92532974    3.93798624    3.94349433
    1   -8.64182741    7.00259657   -0.00026343   6127.82686443-1064.46736465 -671.98908943     15.98580395   15.68706363   15.70336584
    1   -9.31257942    8.19179758    0.62619458   2684.69991909 5042.86464610 2543.75618858     15.84278958   15.94073898   15.83693568
    8    2.42188739   -9.76575660    4.23109439  -1449.37746264 3136.34635770-9216.35246055      3.94460530    3.95660345    3.92428369
    1    1.71205157   -9.22158743    3.90168159  -2464.93796709  272.94125812 5739.81855182     15.62890152   15.74261397   15.96966938
    1    2.95639958   -9.93853943    3.46106958   3920.69467091-3402.71196679 3478.42821153     15.89411594   15.58995308   15.87574708
    8   -8.14014861    8.79594640   11.58846939  -7259.62592746 5839.17930029-3163.99923697      3.92940390    3.96367470    3.94011941
    1   -8.86648342    9.15483257   12.09060458   2125.09157513-2865.58219100 5126.62868945     15.81953621   15.61226554   15.94419502
    1   -8.27935442    9.13361757   10.70807457   5132.64710967-2970.98659016-1969.23638459     15.94444491   15.60788794   15.64949212
    8   -5.36388060   11.97588540    8.89324639   4850.77946726 8489.19892668-1081.86802496      3.96108636    3.97060389    3.94556748
    1   -4.43275143   12.10439956    8.73517457    875.85109874-6187.54005846   62.67895358     15.76764625   15.47434726   15.73388046
    1   -5.71729744  -12.13934543    8.92112758  -5725.78408645-2306.50435479 1019.96793332     15.49352120   15.63550261   15.77363076
    8    4.19173339    3.42529039   -6.80645760   -728.59662260-4803.41625777 8574.98988337      3.94649139    3.93583119    3.97083064
    1    3.73925057    2.60533057   -6.62919144  -1741.67130772 -339.90592167-5995.14682052     15.65894932   15.71716210   15.48231018
    1    4.55790458    3.67376958   -5.96225543   2463.49435001 5139.21293877-2578.74983007     15.83358220   15.94469997   15.62418684
    8    3.04608040    3.39416439   12.05041239   4087.77954506-8960.13770352  339.31566781      3.95909251    3.92495469    3.94928524
    1    3.77264157    3.10054258  -12.40700242    427.90750011 5711.38725844 2521.02152201     15.74904960   15.96848207   15.83598043
    1    2.80744156    2.62107858   11.54654457  -4523.73044706 3247.48585573-2850.96552843     15.54339897   15.86615163   15.61287194
    8    8.54549739  -10.09831360   -8.57683761  -2860.02468580 9434.01218506  354.32549582      3.94091564    3.97307692    3.94932440
    1    7.65730757   -9.75432244   -8.54093543  -2265.05516375-5828.29029977  -96.63470376     15.63721816   15.48924951   15.72726487
    1    9.09482358   -9.31939543   -8.57170343   5113.10026173-3597.56006042 -258.73896125     15.94360661   15.58188370   15.72053325
    8   11.68140039    5.10326439   10.32803940  -4941.26885371  631.59805967 8513.65827233      3.93547071    3.95004979    3.97066992
    1   10.74121457    5.19322457   10.45633056   -854.71428912  -41.68417611-6197.46787302     15.69578351   15.72954672   15.47391131
    1   12.03434259    5.08639757   11.21327757   5788.78817616 -590.11499080-2313.49549431     15.97167269   15.70677166   15.63520354
    8    0.07975140   -6.79818860    7.94995739   7398.51743046 6487.04036248 -826.23446839      3.96775079    3.96536652    3.94623619
    1    1.01620357   -6.96615444    8.00781258  -1153.41552856-6076.68690177  965.66882118     15.68338334   15.47895111   15.77137590
    1    0.02309556   -5.85986543    7.79235757  -6243.84491958 -396.54058559 -140.64062243     15.47201006   15.71481165   15.72543787
    8    8.65992240   -0.01052160  -10.23967661   5995.52768081 7798.84291417 -505.93445385      3.96408075    3.96879791    3.94707404
    1    9.60912857   -0.00391744  -10.32609343     44.11196382-6254.93171775  -33.62485955     15.73310917   15.47155046   15.72988159
    1    8.42431756    0.91268857  -10.21377043  -6042.32689755-1545.12183681  539.85177199     15.48037861   15.66711851   15.75369435
    8    7.26057140    7.23368640    4.46991840   7143.16935745 5015.00580781 4577.36933275      3.96708209    3.96151538    3.96037066
    1    7.31773756    8.17443657    4.61213257  -5455.39452449  786.47716321-2948.48920253     15.50475857   15.76393361   15.60885034
    1    8.05448857    6.89118556    4.87102657  -1677.24678863-5795.61070009-1617.04056614     15.66163477   15.49063224   15.66413476
    8    3.73987239    9.49196939    0.19320439  -9626.79825592-2084.53687705 -283.06274056      3.92320861    3.94294321    3.94765684
    1    3.01732658   10.08271658   -0.00030243   4046.17827429 4710.43666634 -773.73937587     15.89933532   15.92692555   15.69914055
    1    3.31566058    8.65365857    0.35374258   5579.49082130-2623.44584048 1044.10108609     15.96302139   15.62231288   15.77464451
    8   -4.64381860    8.58773540   -5.71090460   6240.04847735 5618.43939913 5162.17008190      3.96471972    3.96309376    3.96190029
    1   -3.99930143    8.30958056   -5.06613243  -1719.95354634-5956.41359885 -843.32492365     15.65986173   15.48395604   15.69626104
    1   -4.54498944    9.53524657   -5.74180244  -4520.77220027  336.07093327-4317.38166473     15.54356652   15.74523173   15.55201169
    8    3.47541240   -0.00130860   10.25744739   4899.18521019 5990.49719850-6109.81438695      3.96121408    3.96406902    3.93241380
    1    4.23452557    0.54163257   10.45101259    -50.38968751-2036.72270703 5909.97224992     15.72918510   15.64669782   15.97670366
    1    3.29989656    0.16780656    9.33598757  -4845.72396188-3953.38500145  195.47946996     15.53004736   15.56710387   15.73939558
    8    3.62752739   11.42382740    9.09034439    976.93121809 2821.52867774-9403.02628035      3.95095349    3.95577960    3.92379580
    1    4.40725958   11.75992257    8.65726158   3208.49277426 -536.07477648 5349.83588964     15.86453317   15.70901353   15.95346750
    1    2.96574756   11.42130757    8.40438958  -4191.33474565-2270.92846627 4050.17782997     15.55720285   15.63696143   15.89948991
    8    5.57798240   -3.98596961    8.84330139   5969.77108832-7831.35784949 -221.37214053      3.96401595    3.92790862    3.94781831
    1    5.33686856   -4.90550342    8.77387757  -6045.79950726 1592.29067948 -179.90852573     15.48019274   15.79740629   15.72380608
    1    6.52998557   -3.99995141    8.88792557     74.07547806 6238.59302914  400.15326400     15.73435416   15.99036961   15.74789634
    8   -5.24028360    4.17234539  -10.95117061   4696.17853164-7002.63336822-5127.57248651      3.96068460    3.93007572    3.93498165
    1   -4.30418142    4.08527858  -11.10812142   1037.08189370 5200.39080637 3313.07818310     15.77435092   15.94726509   15.86887949
    1   -5.62035244    3.42372158  -11.40239442  -5714.07966424 1806.53543868 1808.77933700     15.49395542   15.80630827   15.80640148
    8    5.40350340   12.42229239   -6.83488460   6089.57287041-2015.29746998 7474.02963090      3.96432722    3.94312566    3.96794882
    1    5.90508557  -11.96529242   -6.30397143  -2327.47809053 4775.83861530-3295.54270081     15.63462950   15.92959348   15.59443082
    1    5.62633357   11.56849557   -6.47450544  -3761.39539368-2752.49079928-4177.97746344     15.57508643   15.61698125   15.55778793
    8   11.83083239    2.26615939   -0.00324961    627.07167886-9814.00838555   33.72114904      3.95003820    3.92271934    3.94848571
    1   11.11884056    1.63247858    0.00050657  -4156.98050376 4665.67665020  -11.59835193     15.55862162   15.92506177   15.73079605
    1  -12.38205642    1.72861658   -0.00225643   3533.25886202 5156.72114743  -24.49947682     15.87802825   15.94545690   15.73026021
    8   -6.46063960    5.57450739    0.87161040   4390.99579686  138.52561828 8828.12284910      3.95988356    3.94875983    3.97149031
    1   -5.56170442    5.33926057    1.08392556   1079.92470328-1326.54953672-6020.82376106     15.77611985   15.67619480   15.48127157
    1   -6.83678744    5.82799358    1.70991557  -5468.40422270 1184.21944509-2808.26344539     15.50421020   15.78045077   15.61466837
    8   -9.62301760    0.45409239    0.05041840   3642.81833766-7181.20751565 5677.05246867      3.95792760    3.92961043    3.96324944
    1   -8.75896442    0.05402058    0.00733856   1490.76287537 3729.03941686-4795.17270843     15.79318701   15.88613956   15.53214104
    1  -10.05173744   -0.00001542    0.77047457  -5140.18387086 3448.88915673 -883.29633083     15.51781322   15.87450530   15.69459571
    8  -11.55552760    2.59579940   -8.02671460   3106.69035602 8212.87845654 4513.03745667      3.95652384    3.96988039    3.96020249
    1  -10.74410242    3.07473156   -8.17065244   1674.16339900-4151.62022659-4374.07298276     15.80079288   15.55889199   15.54965545
    1  -11.99923244    3.09337556   -7.34550843  -4767.18390765-4057.67596900 -138.32754568     15.53333260   15.56279278   15.72553384
    8  -11.03398561    3.68903839    6.09198639  -4350.94766532-2495.30781779-8495.43469234      3.93701265    3.94186818    3.92616807
    1  -11.88066243    3.97635458    5.76170358   -826.09406169 3478.66874951 5138.75527648     15.69696450   15.87576939   15.94472314
    1  -10.70789042    3.10474257    5.41319658   5189.38650134 -996.12406931 3340.12498388     15.94682651   15.68990218   15.87001441
    8    4.92319740    7.56474139    6.95756739   3700.37199949-6767.15988170-6119.74609895      3.95807935    3.93069148    3.93238542
    1    5.01609657    7.61760459    6.01042757  -2499.44363922 5727.12684074   68.78495612     15.62746670   15.96914647   15.73413446
    1    5.27085257    6.70448058    7.17570159  -1196.00044972 1040.67420730 6049.89783847     15.68160355   15.77450066   15.98255235
    8  -10.04683460   11.65947139    0.40369939   5841.61761062-5664.17092898-5541.06024468      3.96368121    3.93357802    3.93390012
    1   -9.21154743   11.88908659    0.00611458   -422.38870080 5745.79153557 2422.32516511     15.71373521   15.96991183   15.83188168
    1  -10.18592044   10.75378957    0.14123458  -5422.93824654  -78.15391310 3116.92961189     15.50605248   15.72803174   15.86072995
    8   -8.28377560    0.23557440    6.04162139   6501.16269455 5943.39405610-4393.16195271      3.96540435    3.96394524    3.93690508
    1   -7.45586543    0.00015156    5.63217958   -993.65186057-6001.39027470 1437.39532528     15.69001532   15.48206447   15.79096706
    1   -8.33645944    1.18052657    5.92853758  -5512.38053557   50.59036476 2953.95095714     15.50237101   15.73337841   15.85394340
    8   -4.78661661    0.70226939    5.55925739   1021.35040358-9704.50508025-1310.75456620      3.95106982    3.92300582    3.94496792
    1   -4.86057243    0.20760558    4.74787757  -1202.13661329 5284.48742954-3117.77227660     15.68134816   15.95076372   15.60178390
    1   -4.59044143    0.03995958    6.21603458    180.41827658 4426.71475817 4422.19030603     15.73877132   15.91513697   15.91494927
    8    3.40312240    8.71180139    9.68997839   2725.52435251-6607.66401159-6790.16752777      3.95552882    3.93110854    3.93063101
    1    3.94277057    7.93514058    9.80863359    564.27537159 1324.22853626 6082.17121940     15.75471469   15.78627851   15.98389673
    1    3.18978857    8.70463458    8.76103757  -3299.79220024 5267.73074176  710.07305356     15.59422307   15.95006941   15.76076995
    8   -4.80511261    5.23883639   -3.99979561    369.45825625-9842.06349120   -1.82758149      3.94936416    3.92264605    3.94839270
    1   -5.53387244    4.62450158   -4.00026543  -4035.70986629 4780.19006569   -1.31587042     15.56365920   15.92981710   15.73122313
    1   -4.03272642    4.68034258   -3.99939443   3667.09787654 5064.74969809    5.38446044     15.88358646   15.94163602   15.73150141
    8    5.31212839   -4.00753261    5.62235040    802.18010658  142.75065412 9825.50294449      3.95049590    3.94877090    3.97410000
    1    4.61171556   -4.00255343    6.26880056  -4247.72719976  -79.87987013-4592.41417155     15.55489215   15.72796079   15.54057884
    1    6.10882058   -3.99710743    6.14548756   3436.97345549  -52.20895727-5229.71094408     15.87399699   15.72910981   15.51411522
    8   -5.03018061  -10.31126960    4.66146039  -9387.64341400 2300.65494803-1939.97390089      3.92383515    3.95441704    3.94332163
    1   -5.49754642   -9.51223142    4.88863758   5162.07895913 2246.49191227 2729.98443877     15.94567743   15.82458280   15.84466389
    1   -5.68038542  -10.83634544    4.20317957   4224.20998245-4546.99402769 -790.31435941     15.90672425   15.54242460   15.69845306
    8    3.92999340   12.00623340    4.52051239   9074.66501698 3758.20398410  584.62663013      3.97213529    3.95822831    3.94992677
    1    4.76172357   11.54712056    4.44342457  -3048.43035348-5391.81741542 -858.76228916     15.60469549   15.50738976   15.69561882
    1    4.18048456  -12.08570042    4.66600257  -6033.87598666 1630.90460076  283.99273229     15.48072887   15.79899872   15.74307016
    8   -4.42921161   -6.84703060  -11.69368461  -4203.68431956 8925.55545394  124.49433439      3.93740037    3.97174732    3.94872316
    1   -3.99997142   -5.99621643  -11.67436043   5587.45761624-2815.22896139   -0.12430648     15.96331027   15.61436851   15.73127262
    1   -5.35875743   -6.63627944  -11.69847643  -1382.80227254-6100.65357486 -120.37694003     15.67385366   15.47793352   15.72627885
    8   10.78587939    2.88367439  -12.23442460  -9438.84519775  786.63994880 2727.39114721      3.92370200    3.95045562    3.95553333
    1   10.24787758    2.23266256  -11.79256843   4842.35495711-3961.65235692   60.29300807     15.93239142   15.56674148   15.73378197
    1   10.20005258    3.62649758  -12.35068743   4592.58192646 3183.41144151-2802.32257208     15.92201782   15.86349202   15.61489111
    8   11.94323839    0.58016739    2.40338539    -29.27085810-9826.14568976 -798.75711718      3.94832089    3.92268716    3.94630752
    1   11.19042957   -0.00361042    2.37208457  -3836.89734876 4912.13918488  472.10506480     15.57191329   15.93530173   15.75088647
    1  -12.30768842   -0.00602442    2.34203357   3866.75698040 4902.90758839  320.78113560     15.89188247   15.93491834   15.74460126
    8   -8.71946460    5.42088439    7.56558840   7734.38123207-5513.47554711 2639.16920101      3.96863113    3.93397387    3.95530172
    1   -8.61710244    4.47696257    7.48172757  -5703.07752914 -398.55239796-2554.04466335     15.49444382   15.71472697   15.62521496
    1   -7.90158843    5.70714159    7.96261857  -2021.69153174 5919.50306871  -83.65901251     15.64732207   15.97709927   15.72780356
    8    9.44274240   -7.39057660    5.76169439   4194.50722188 8884.42533835  453.90133224      3.95936956    3.97163753    3.94958480
    1    9.31788556   -6.65122943    5.17324157  -4023.51868480-3373.28534229-3389.86019586     15.56420732   15.59120705   15.59051917
    1   10.06795657   -7.06973444    6.40564058   -174.19295328-5516.58392186 2933.14136671     15.72404447   15.50220994   15.85307182
    8    7.79230239   -7.14235261    7.94687039  -8693.04664838-1831.49119440-4253.08635129      3.92565112    3.94360518    3.93726877
    1    7.35796458   -7.98351043    7.83595358   4766.96697948-2847.09958592 2874.07699244     15.92927925   15.61301982   15.85065596
    1    7.19205958   -6.51853742    7.54804858   3921.93783778 4673.04031497 1393.76663204     15.89417989   15.92537823   15.78916945
    8    3.56777240  -10.38795661  -10.61460761   9168.94001969-3176.38903615-1539.67019086      3.97238412    3.94008781    3.94436959
    1    4.38261357   -9.90653642  -10.50159142  -3222.24375891 5031.49794296 1832.49002207     15.59746571   15.94022356   15.80737660
    1    3.84795356  -11.24849143  -10.91372443  -5955.60467975-1857.61539237 -287.49087193     15.48395603   15.65413556   15.71933898
    8    5.11517440    0.09768539   -8.66376360   4624.00578912  680.59697724 8660.48088747      3.96049299    3.95017779    3.97105163
    1    6.04668158    0.00012157   -8.48690244   1053.34518753-1045.63723749-6074.31986775     15.77501587   15.68785953   15.47905196
    1    4.73544956    0.27626557   -7.80795043  -5677.82435662  369.49508927-2589.33140097     15.49551594   15.74662039   15.62375996
    8    2.37030840    5.77977539    4.63560339   9173.52554741-3599.76488838 -105.64525179      3.97239587    3.93898033    3.94812110
    1    2.64694956    4.87865057    4.77682257  -5967.29089499-1711.94546948  809.60324371     15.48347332   15.66018567   15.76489826
    1    3.18514457    6.24968258    4.48156657  -3204.20023110 5320.48560739 -701.23299294     15.59821641   15.95222215   15.70215763
    8  -10.27239061   -4.90350260   -7.16492860  -8438.13327951 4220.69623479 2851.79093773      3.92632131    3.95943983    3.95585845
    1  -11.13463342   -5.30358544   -7.09443443   2364.75458948-5457.55238378-1924.36144721     15.82948636   15.50462466   15.65135873
    1  -10.41481341   -3.99998442   -6.89684443   6060.81061231 1231.91268429 -917.57971683     15.98298429   15.78243930   15.69317054
    8    4.38298340   -6.57126460  -11.98841761   4318.42357505 8812.00098163  766.03698077      3.95969366    3.97144800    3.95040129
    1    3.98813456   -5.74628143  -11.72008943  -5502.18184794-2872.89757946  759.58862177     15.50280896   15.61198527   15.76281831
    1    5.29156458   -6.34487544  -12.16653543   1185.89506110-5944.52935223-1531.42658120     15.78051979   15.48444106   15.66768786
    8  -12.48502761   12.19964640  -10.47408561  -1134.50534137 9696.73555859-1249.87324681      3.94542967    3.97376374    3.94512787
    1   11.73839157  -12.33489044  -10.77201943  -3069.75680867-5425.82880636 -508.43404441     15.60380406   15.50596640   15.71016470
    1  -11.84408942  -12.11004644  -10.32857542   4206.72473821-4269.70156050 1769.51217381     15.90596480   15.55397530   15.80475796
    8   -6.75792361  -10.98259860   -6.43522260  -3894.95632994 8144.01597730 3946.57578594      3.93820839    3.96970199    3.95872161
    1   -6.32028142  -10.15902043   -6.23851943   5384.09785920-2335.61706684-2168.56797224     15.95485713   15.63428902   15.64122601
    1   -7.65934143  -10.83556744   -6.16259843  -1488.30238824-5810.84588491-1774.82182268     15.66947483   15.48997722   15.65757670
    8    3.81326039   -9.95664460   11.65947140  -7559.52143607 5955.20229353 2217.25271828      3.92862039    3.96397738    3.95419822
    1    2.88190658  -10.15851544   11.64138857   1298.69049523-5831.09264346-1882.69126615     15.78521141   15.48911669   15.65309097
    1    3.84658059   -9.04696443   11.94208557   6249.52970069 -119.44943615 -339.03291170     15.99081625   15.72631706   15.71719797
    8    7.93438839   -0.00029360    0.68882239     18.40232463 5204.05965675-8383.58942446      3.94844563    3.96201281    3.92646358
    1    8.59116658    0.61927057    0.38339458   3361.15915729-1012.61476443 5172.70585552     15.87087001   15.68922291   15.94610530
    1    7.27832557   -0.00041544   -0.00260642  -3375.06742611-4190.35563166 3195.51372569     15.59110785   15.55724823   15.86399048
    8    7.56286340   10.85948139   -0.00719260   2302.56445863-8206.67729685 4959.15468840      3.95442151    3.92692695    3.96137175
    1    8.41817858   10.44811758    0.08066357   2533.10149025 4486.96240833-3542.52609692     15.83647740   15.91762121   15.58415677
    1    6.98272956   10.29502858    0.49612657  -4834.60879097 3703.17603927-1415.62124508     15.53049659   15.88507054   15.67248710
    8    0.00706340    7.76360740    0.48220839   7185.74797592 3836.48700557-5559.15005857      3.96719574    3.95843391    3.93385448
    1   -0.00059544    8.58525258   -0.00084642  -5824.80275665 1125.45871326 1998.66185791     15.48939050   15.77801474   15.81427651
    1    0.86921257    7.39880156    0.30300758  -1359.96750056-4964.29457845 3556.99024737     15.67480213   15.52512497   15.87898935
    8  -11.49815960    5.59327539    8.02027340   5316.45151032  392.98506317 8271.96493526      3.96230430    3.94942547    3.97003535
    1  -11.21755943    4.86691456    8.56996957  -2854.74832784-4031.20325193-3846.53195363     15.61273911   15.56388906   15.57155695
    1  -11.14423843    6.36304758    8.45695556  -2475.67125610 3648.38742380-4427.33881213     15.62847961   15.88277054   15.54743992
    8    7.85421539   -0.00991760    3.43741139   -936.73929956 9794.53675841 -440.50676165      3.94594700    3.97401964    3.94724513
    1    8.53785058    0.63873356    3.29458557   4260.62767920-4564.45293728 -361.83728419     15.90820356   15.54173511   15.71625225
    1    7.05932257    0.50853056    3.52602457  -3323.07359259-5234.51862674  817.08765291     15.59328465   15.51391016   15.76520797
    8   -9.94510061   12.22781939    6.61215139   -799.20418953-9772.25392067 -884.09315872      3.94630635    3.92282816    3.94608423
    1   -9.62752442   11.67654358    5.90240557   2262.97162203 5045.57367730-2926.30633706     15.82526965   15.94084399   15.60973439
    1  -10.35494143   11.61395958    7.21522958  -1471.02255620 4721.07200930 3818.75214076     15.67017917   15.92736593   15.88988860
    8   -3.99950661   -8.08014761    8.81182540  -6184.26255305-2623.30450037 7209.15272226      3.93221792    3.94153427    3.96725840
    1   -4.15945242   -8.95347743    9.15854256   4169.68315632-2363.90613595-4022.80414273     15.90444590   15.63310402   15.56420961
    1   -4.57701342   -7.51986942    9.32277657   2027.09504887 4987.63648469-3183.49593549     15.81546361   15.93841575   15.59906630
    8   11.77010140   -4.52538860    7.33871039   4393.67026031 8820.96108694 -332.40662147      3.95989062    3.97147170    3.94752796
    1   11.97352257   -4.00020944    6.56974457  -2485.94762879-4407.57248749-3676.31229296     15.62805177   15.54825851   15.57862352
    1   12.08913857   -4.00039544    8.06747358  -1893.90483551-4408.90461301 4008.81616636     15.65263557   15.54820314   15.89773878
    8    8.69778639    4.17823040   -0.00051660  -5969.53549710 2017.75290400 7583.39858189      3.93278059    3.95367612    3.96823640
    1    7.92699257    4.73888358    0.00622456    846.46306922 1248.96694905-6076.71058994     15.76642968   15.78314477   15.47892459
    1    8.75868858    3.85917657    0.89558157   5117.81603114-3267.89506581-1512.93957333     15.94381006   15.59556892   15.66844844
    8    7.58086339   -4.55988361   -5.60347461  -3439.13493402-9167.59893179-1113.04039585      3.93939869    3.92440967    3.94548511
    1    8.07043158   -5.37735242   -5.57964642   5278.58308822 3190.90824160 1027.59946600     15.95052764   15.86381417   15.77395988
    1    6.68178157   -4.83407541   -5.76147643  -1845.91905687 5976.65958689   97.31065338     15.65460592   15.97952248   15.73531959
    8    0.77465639   -3.98570561  -10.34545161   -328.09125040-9774.30642591-1203.52103130      3.94753903    3.92282283    3.94524844
    1    0.00565857   -4.54824642  -10.37169443  -3680.40658941 4987.43935878  838.05850175     15.57841323   15.93842903   15.76608623
    1    1.50453858   -4.58726542  -10.46332343   4008.24635104 4786.13315383  364.84669518     15.89775897   15.93006790   15.74643155
    8    3.95304840  -10.04756561    7.07365140   8014.84994315-2943.32318023 4888.11267165      3.96936369    3.94069798    3.96118440
    1    4.29457256  -10.93322143    7.16011657  -4711.50892231-2163.22429492-3488.42496825     15.53563189   15.64144984   15.58642059
    1    4.56829957   -9.51382542    7.56871357  -3304.75613128 5108.39939078-1387.63453613     15.59404732   15.94340437   15.67365600
    8    0.09039840   -9.32142261   -4.45915860   6905.29650675-6846.14509976 1621.69079149      3.96646280    3.93048691    3.95264007
    1    1.00510957   -9.30811742   -4.72679443   -866.56050256 5583.46106237-2682.72261204     15.69529050   15.96315224   15.61986755
    1   -0.00262244  -10.14986342   -3.99706942  -6037.64837329 1261.74694859 1062.42239047     15.48054147   15.78367663   15.77539892
    8  -12.16615560    9.95060539  -12.02321360   1266.44999474-2900.35354833 9346.00393988      3.95171053    3.94081012    3.97284672
    1   12.17264656    9.63731857  -11.41233844  -4401.11895587  728.83872214-4392.45474330     15.54851472   15.76154397   15.54887437
    1  -11.35602942    9.91971158  -11.52197444   3138.33119146 2175.42429122-4953.21518338     15.86160151   15.82161559   15.52558792
    8    6.89827740   -5.62259761    0.64740539   8811.38653459 -173.15116121-4411.35589210      3.97144879    3.94794451    3.93685701
    1    7.62809557   -5.02192342    0.77012458  -3352.87759641 3224.83727383 4184.18772442     15.59204046   15.86519767   15.90503732
    1    7.21736456   -6.24361543   -0.00144943  -5458.21695044-3050.38398280  224.98166800     15.50461074   15.60460246   15.74062076
    8   10.04444239    0.54139939   10.94907339  -3190.06273619-8913.98686465-2771.86592527      3.94005031    3.92507299    3.94114457