 BEGIN_INFO
   #
   # This is a XCRYSDEN-Structure-File
   #
   # aimed for Visualization of geometry
   #
   # Launch as: xcrysden --xsf HICOLM.XSF
   #
   #
 END_INFO
 # estrutura final
CRYSTAL
PRIMVEC
      21.03256089       0.00000000       0.00000000
       0.00000000      21.03256089       0.00000000
       0.00000000       0.00000000      21.03256089
PRIMCOORD
  927    1
    8    6.64384639    5.33550523    4.50519910     21.79062712   -1.90717470   20.85084281      4.38639591    4.32412246    4.38259535
    1    7.22457823    5.29879975    5.33618582    -16.44137228    0.63375461  -23.62962832     16.58433106   17.28460270   16.29656292
    1    6.19852431    6.19829682    4.65154064     -4.83836810    0.17525085    4.04654795     17.05024093   17.27238352   17.42846554
    8   -8.87466184    8.63629922    3.17352289      5.35980293  -17.86044057   -6.89829747      4.34379440    4.28279263    4.30979794
    1   -8.23960364    8.13372645    3.73363248     -2.20718580    6.97703405   -0.14122539     17.17190026   17.53643162   17.25808712
    1   -8.75329470    8.08422695    2.35714603     -1.61025409   10.75446284    3.70268624     17.18290845   17.71709371   17.43021561
    8   -8.62267081   -7.68516429    9.97490295     -9.87988487  -21.96633867   15.20031510      4.30314796    4.27227958    4.37052828
    1   -8.50040566   -6.89388138    9.44879233      4.23872385   15.51720306  -12.78097895     17.43118219   17.90598519   16.71638548
    1   -9.59090727   -7.61546187   10.18001025      9.03645861    4.15272781   -3.38939702     17.64446708   17.42452941   17.11033798
    8    1.29411766    9.67062238   -7.07372690    -17.05610714    6.63516332   -2.56868985      4.28580179    4.34734694    4.32345712
    1    0.62813529    9.72324192   -6.34399100      1.00043623    0.49747093   -2.47087986     17.29346857   17.27477288   17.15238527
    1    1.72279962    8.83942613   -6.83953570     11.27298501   -3.63589505    2.09871309     17.71857561   17.10534852   17.33819381
    8   -7.45672237   -6.21362016   -7.65553490     14.79778266   -8.67470326    6.11229159      4.36768544    4.30703635    4.34671792
    1   -7.11534661   -5.46845232   -8.17219484     12.70554102    8.50927726   -7.46243374     17.78661572   17.61755897   16.93618260
    1   -8.35163394   -5.89739449   -7.65630013    -30.28489605   -1.24801867    4.93596424     16.00717808   17.19683896   17.45806626
    8    7.30281526    1.39883123    8.93355021     10.76352533   -6.93655189   -8.30050402      4.35694975    4.30968257    4.30763649
    1    8.14013325    1.95630332    8.96014427    -11.02491590   -2.75951416    4.78123408     16.82113339   17.15456233   17.45270098
    1    7.66878565    0.62490682    8.43723564     -4.40916222    7.19698633    4.02960044     17.06428119   17.56985565   17.43170746
    8    5.95602335   -8.52484703    9.19853687    -16.93347903   11.60797161   -5.21303269      4.28478523    4.35997024    4.31405431
    1    5.14992173   -8.23695693    8.67068459     13.68480061   -8.55806874   15.53719520     17.84085718   16.89159372   17.91226470
    1    5.81638392   -7.98336891   10.01440549     -2.96994677   -3.77216846   -8.21741694     17.12614441   17.11194174   16.93481999
    8    6.55652690   10.49871985   -3.57679088      6.20802500   24.60471538    7.15181168      4.34547695    4.39257495    4.34891595
    1    6.61070528   -9.55198423   -3.43947209    -11.13704503  -10.23858356    4.08499823     16.79699991   16.85312195   17.42486832
    1    7.44327123   10.40863046   -3.96054003     -1.10011087  -11.71919706   -9.02774997     17.21732797   16.77020070   16.87458781
    8   -0.57943742   -4.06777883   -9.14114808      6.90957386   19.53797255   14.97344027      4.34673912    4.37984976    4.36766781
    1   -0.70782333   -3.19197355   -8.66679442      4.95809203  -20.45608555  -11.39689643     17.46254798   16.42486491   16.79508435
    1    0.32623600   -4.32722602   -8.81505599    -11.82491061    0.22856694    3.11177703     16.78157466   17.26427407   17.39308915
    8    0.11247449    3.84598352   -4.72753497     -4.18765749   14.16781803    9.66074885      4.31885878    4.36611690    4.35313897
    1    0.06384214    4.59003183   -4.06208380      2.64419400  -14.13610794   -9.61568099     17.36128127   16.68924298   16.87188773
    1   -0.34501193    4.25328235   -5.48571033     -3.66710348    0.08298671   -2.01178911     17.10871084   17.25061112   17.18487414
    8    3.55796705    6.35220264    7.14543006      1.31930714    2.19255800    1.45077780      4.33158955    4.33472637    4.33222349
    1    4.35761640    6.55779315    6.61738645     -0.07315115    1.81551381    2.31033468     17.26158159   17.33250395   17.34618783
    1    3.02121385    5.97570806    6.42360602     -3.05388891   -3.26227238   -0.70797238     17.14493947   17.13160878   17.25355438
    8    8.74956083   -3.76862581   -2.86606923      3.03903371   23.07321768   -9.01152020      4.33764706    4.39012787    4.30714751
    1    9.61925408   -4.05800881   -3.19941231      4.14840180   -1.92029711   -2.04175761     17.43095772   17.17236286   17.16640641
    1    8.52073724   -4.51953262   -2.32492631     -7.10891568  -16.21805769    7.73036852     16.95951260   16.58679359   17.56864769
    8   -6.89897815   -9.99607286    6.41900714     -4.09158946   10.84966670    7.44414496      4.31972043    4.35669710    4.34848575
    1   -6.91604744   10.07836337    6.27584370     -1.14831893   -5.03639447    2.56440497     17.20636794   17.07001094   17.36223769
    1   -7.21565930   -9.93866782    7.35915086      3.21412902   -6.40948773  -10.66246603     17.38251168   16.98956162   16.82510515
    8    0.29653660   -6.01955475    5.59888835     18.77424024   -1.83183901    6.21140241      4.37760750    4.32353851    4.34511677
    1   -0.22189312   -6.70205108    5.16249670     -9.17762932   -9.31086215   -5.37086525     16.89569694   16.88930501   17.04831301
    1   -0.24848265   -5.23912219    5.39650148     -5.78730809    9.81962421    2.46521249     17.01574687   17.66563837   17.35792977
    8    0.23102793    7.30064706    8.80321791     14.28752053    0.19727801    8.21827756      4.36551695    4.33026686    4.35023859
    1    0.74294483    7.26922206    9.65268384     -9.18408665    0.18781117   -5.69891100     16.89126403   17.26302222   17.03895827
    1    0.91672236    7.70563014    8.23553757     -7.64782384   -2.44890972    1.43596415     16.94659898   17.15638414   17.31074924
    8    5.44786335    3.02474956    3.55652081      4.73519452   16.88736919   -7.07236788      4.34169297    4.37228921    4.30967703
    1    5.75274054    3.94635974    3.76083837      0.17639719   -9.97942134    6.69591299     17.26995090   16.86841852   17.53647311
    1    5.37150956    3.10639924    2.57355031     -5.33430442   -7.62584500    4.86762952     17.03413373   16.93665482   17.47764226
    8    4.78552144    4.52409499   -5.37357703      7.23231127   16.84280812   -0.73957713      4.34828880    4.37199240    4.32765613
    1    4.01363454    4.02674928   -5.08269203    -11.14409864  -16.24818409    3.86758050     16.80815314   16.58997927   17.40769834
    1    4.63309979    5.32129077   -4.82867002      0.19322105    2.46742421   -0.75790445     17.25670158   17.37782145   17.23749326
    8    8.67901498    2.62297266   -6.00522708     -0.63200295   20.13923478   14.85079342      4.32825840    4.38091565    4.36791011
    1    8.86795015    2.35075665   -6.89407346      7.29181416   -3.51043941  -27.02698326     17.55374081   17.11884180   16.14908365
    1    8.29429488    1.80037682   -5.67918945     -5.46114860  -13.20861385    9.43577950     17.03329073   16.72344170   17.64447369
    8    1.71866277   -4.99568051   -8.03319033     19.78517525    3.32841457    6.25848199      4.38020062    4.33665495    4.34531782
    1    2.52141070   -4.50086215   -7.66507224    -16.79294346  -11.94283577   -9.98517031     16.58515865   16.77164884   16.85086838
    1    2.10293825   -5.87019754   -8.30540108     -5.63999786   10.03109852    3.65025291     17.01532878   17.68631706   17.41084251
    8   -1.90577587    2.27535561    0.08921517     14.24864554    5.55236941    8.81570610      4.36577167    4.34314949    4.35115355
    1   -1.97109242    1.54734934   -0.55121647      0.43368329   -6.32223916   -5.62366849     17.27283117   17.01586262   17.04121526
    1   -0.97310540    2.13718251    0.40773860    -16.35934403   -3.00040472   -3.77057713     16.59742308   17.12674559   17.10558358
    8   10.07770805   -7.05817141   -3.54907018     30.13127803   27.44052652  -16.43804907      4.40829418    4.39989612    4.28661519
    1    9.46388211   -6.77868614   -2.85838418     -6.73619983    3.54344439    7.19077932     16.97067272   17.40757103   17.55822862
    1  -10.37609795   -6.21804135   -3.64492260    -22.98288513  -26.89459149    3.58435384     16.31169361   16.16009603   17.40498183
    8    4.15530598    6.68084653   -3.63146467     16.42805675   -8.16906487    0.65964008      4.37226074    4.30870117    4.32988848
    1    3.60377203    7.10915322   -2.96973520    -13.41537213    4.50273784    4.80292327     16.69162677   17.44516581   17.46557066
    1    4.91373937    6.44444116   -3.03913996     -1.56755754    3.52204358   -7.58324058     17.20389763   17.39617170   16.95657304
    8    9.93669231    1.69086436    4.70012631     17.16175496    2.43079886    7.16757662      4.37288732    4.33632960    4.34838911
    1   10.28753312    2.24568700    3.96656045     -5.24039760   -1.32606880    0.99962638     17.04090364   17.20013229   17.29366503
    1    9.00533281    1.56674079    4.46503570    -10.37963737   -1.09835588   -5.89082290     16.84921817   17.20826276   17.01882459
    8   -3.55077811    4.84739928    6.70060481     17.60954681   -3.99048528    6.69857816      4.37495741    4.31963553    4.34556525
    1   -3.30953750    4.62000983    5.77731137      5.37378866    2.60224358    5.06348712     17.47207470   17.36596799   17.48362819
    1   -2.67759513    4.75364322    7.19830184    -25.17382849    3.25628549  -12.88830525     16.23156816   17.38604926   16.72972086
    8    4.69795307   -3.01604800   -0.84509061     15.35007784    4.82496372    2.08404086      4.36842374    4.34250649    4.33435968
    1    4.36550383   -2.88713449   -1.74473197     -4.42079828    2.10980576   -7.30064092     17.08345782   17.33994890   16.97110745
    1    3.90567887   -3.36865356   -0.42696221    -12.84939303   -5.17028385    7.39210755     16.73525074   17.04363976   17.55882973
    8   -1.67430645    4.78862256   -6.61810518     13.84392470   20.18744426    0.27044514      4.36547268    4.38062501    4.32942318
    1   -1.93014287    4.04521127   -7.20075468     -1.10396293    0.17652973  -10.01913329     17.21514406   17.28618757   16.86079580
    1   -1.19463895    5.41140324   -7.24991511    -13.74003347  -14.40743131    8.45320514     16.68867076   16.66386389   17.60196620
    8    1.48285377    8.88010694    6.05446180     -7.43436975   -3.29522289    3.72394719      4.30887592    4.32083862    4.33820216
    1    2.17834849    9.11984353    5.41842355      3.69064235   -0.49143088   -4.41435130     17.41520103   17.23599358   17.07023910
    1    1.93485129    9.04627546    6.90625420     -0.48364614    0.05775899   -1.90337294     17.25417166   17.26389969   17.20021688
    8   -6.94399680   -3.81779988    0.11293768     -2.15374955   -3.28583440   -3.47849588      4.32311895    4.31928582    4.31960658
    1   -6.54192412   -3.12366233    0.67529563     -5.37478800    2.98411599    2.42939875     17.04385725   17.40233258   17.38016046
    1   -7.52226174   -4.30234638    0.75353890      1.62379494    5.12134469    0.34166469     17.32816904   17.47415482   17.26500019
    8    5.43264328    8.59112355   -7.80129306    -17.51312133    8.67034563  -11.56360205      4.28344556    4.35342962    4.29978975
    1    6.15228074    8.07230269   -7.42483456      6.42420668   -5.34144670   10.78979083     17.52865665   17.02271600   17.70695591
    1    4.69158758    8.45354811   -7.16765488      5.57245027   -1.88819305    1.00319305     17.48992905   17.17502743   17.29172741
    8    0.73423702   -9.84900720   -9.49046003     28.16603547  -10.56860205   19.46460733      4.40202410    4.30263964    4.38068778
    1   -0.21766221   -9.92891063   -9.52827117    -22.95352167    1.42107302   -2.04617755     16.32322382   17.31512028   17.16662867
    1    0.92332117  -10.38684389   -8.67093975     -2.29246514    8.75179453  -14.72814200     17.16202667   17.61233829   16.64931609
    8   -1.44495567    0.35467973   -1.86665050     31.35829415   -6.82471317   20.62545253      4.41055857    4.31274990    4.38315192
    1   -0.44122107    0.35729907   -1.86670587    -26.11182428    0.13316052   -0.77060216     16.18958290   17.25905074   17.22042632
    1   -1.61689644    0.67471919   -2.75294535     -1.64557969    6.55395946  -18.42956359     17.18857740   17.51921362   16.50305263
    8   -6.40750375    5.08380673   -5.06502980     26.70009708   -2.24894741   -9.32108675      4.39888869    4.32210930    4.30485655
    1   -5.49213303    5.42830889   -5.24442564    -16.52553340   -8.94646174    1.10018255     16.58693838   16.89511553   17.29924178
    1   -6.71255651    5.78559295   -4.47235923    -10.47834895   10.67136610    8.91772553     16.81649991   17.71651391   17.63722726
    8   -1.09181227    8.20086809    5.17268755     16.43496967   -1.03362575    1.59805112      4.37141083    4.32701040    4.33222632
    1   -0.17666131    8.29055991    5.56639359    -14.34378391    2.82331852  -11.79540341     16.68552872   17.37296761   16.77359642
    1   -0.90958438    8.06375713    4.21147257      5.74848167   -0.55286971   11.51549588     17.49021193   17.23322963   17.75245902
    8   -1.81219500    7.71564260   -4.16325513     15.60881171    1.72666090   -2.06433757      4.37080560    4.33259253    4.32399482
    1   -1.22193692    8.33571440   -4.66899650     -8.85791605   -5.18385347    5.87110207     16.89286414   17.05043304   17.49374189
    1   -2.08085922    8.31957112   -3.43806025     -4.45783170    4.10845919    0.57830874     17.06501349   17.44244534   17.29290140
    8    1.60741616   -9.83201811    8.95465963     -8.44479057    8.79937035   17.78997966      4.30859648    4.35295385    4.37560279
    1    1.30105361   -9.77138423    9.89398026     -2.87866912    5.41874692   -5.43551603     17.13014981   17.47871960   17.04255565
    1    2.11403600   10.39229816    9.04722174      6.44139630  -13.28132363  -11.82284457     17.51802771   16.70439534   16.76267485
    8   -6.86921545    7.04921912    4.26595771     -0.31869657    1.94549372   13.68405212      4.32758451    4.33381478    4.36434648
    1   -5.98934862    7.42150373    4.09491916      4.43573279    2.47032497  -10.79872539     17.46036795   17.36775559   16.80690878
    1   -6.95947937    7.34605190    5.20689019     -4.77012443   -2.68542877   -4.63865529     17.05959827   17.15217244   17.08334492
    8   -3.55676201   10.04655006   -6.55341617     -0.10226518   22.82806006    1.77346631      4.32817157    4.38842701    4.33288929
    1   -4.22417251  -10.38047783   -6.99108845     12.87362382  -15.63628826   10.31602331     17.79695069   16.59964187   17.68956406
    1   -3.07239469  -10.35349369   -5.95084682    -10.32724622  -11.41524137   -9.48830941     16.83999717   16.80608474   16.87994746
    8   -6.64171101   -8.26673388   -9.20765802      8.33559638    0.83962892   12.55423155      4.35109958    4.33136724    4.36066932
    1   -7.31132575   -8.05699767   -9.86897269    -10.42616068   -0.65781294  -13.34415485     16.83769284   17.22020682   16.71633741
    1   -6.83921220   -7.53793672   -8.57729313      1.06634107   -1.39364358    0.30480417     17.29289809   17.21522467   17.28295538
    8    3.69407291    0.67182965    7.07460613      4.24328801   -6.25743722   14.57144959      4.34020394    4.31219033    4.36615903
    1    3.46946620    1.20997736    6.28814841      1.52646861    9.48562194    1.78427054     17.32061255   17.64480097   17.33850581
    1    4.05491038    1.33850624    7.72525407     -6.53453158   -4.43434221  -16.51622888     16.99431427   17.09670743   16.58761567
    8   -2.23101993   -7.42682113    9.05890230     16.17571510   22.63502911   -6.03272339      4.37158147    4.38752934    4.31439024
    1   -3.03467422   -7.87010039    9.33895570    -11.61727284  -13.75891720    6.01670218     16.78703816   16.69719289   17.49868865
    1   -1.71063781   -8.14079822    8.64238806     -1.64830485   -5.91505915   -0.32333925     17.18223183   17.02120287   17.24438635
    8    2.42875603   -1.20506528   -7.10301916    -16.34633369    7.33894959  -14.85217103      4.28630023    4.34769733    4.28925856
    1    2.78286249   -0.61744181   -6.42208059      5.73900437    6.59846286    8.24423300     17.50844554   17.54575461   17.62443229
    1    2.91947070   -2.02245346   -6.96071223      7.09167489  -12.97419413    5.43243699     17.54838877   16.71936646   17.48231145
    8    4.65138545   -1.94565467    7.59226936      0.28099426   28.10534727    8.49830713      4.33070598    4.40263179    4.35046440
    1    4.84770123   -1.97445401    8.56792116     -2.81305657   -4.13958060  -11.70791715     17.14054290   17.08681761   16.79172737
    1    4.36704308   -0.98308740    7.49421656      5.23654781  -24.73725835    0.16630256     17.46916333   16.23810493   17.26518743
    8    7.50847237    3.98369539   -8.89719625      7.01825115    5.88156924    7.33458558      4.34672380    4.34350316    4.34838565
    1    7.92030773    3.09028853   -8.87262505      5.54447918    9.64071983    0.84624600     17.48244132   17.66561740   17.28957235
    1    8.23507551    4.57414751   -8.53262702     -9.74410206  -18.09220464   -5.94885709     16.87682813   16.51989574   17.01982809
    8   -9.32331216    3.93787136   -2.01041320      8.44829818    0.68081014   16.90647049      4.35027198    4.33132924    4.37304805
    1   -9.56830647    4.04024126   -2.93181984     -3.77056388   -1.42222768  -19.50715220     17.10798198   17.19406958   16.46390185
    1  -10.10089865    3.45895581   -1.68987032     -4.35026892   -2.10735387    3.56264917     17.09206479   17.17617298   17.40039466
    8   -8.04561225  -10.25056412    8.91653012     -4.09811226  -10.89149683  -15.37118530      4.31954209    4.30060156    4.28802057
    1   -8.28858617   -9.41639084    9.31785760     -1.01025100   18.97894948    9.35920963     17.20622574   18.05987289   17.65714208
    1   -7.69886124   10.29109427    9.68546035      3.78891201   -2.72133034    4.11101435     17.41462117   17.13763568   17.43864895
    8   -5.22556649   -0.69249043   -7.22551196     -7.17371131   16.35256153   20.12486425      4.31187428    4.37152964    4.38166502
    1   -5.00216539   -0.60179299   -8.14400063      4.88110256    1.35240348  -17.93119016     17.45165387   17.30857662   16.52157093
    1   -5.37032336    0.26940663   -6.97815547      2.06510288  -18.17306456   -2.95811610     17.33677016   16.52022252   17.13504820
    8   -4.73643270    7.54128069   -2.13588346     -4.91497119    7.77519249   -0.90374307      4.31523639    4.34941257    4.32775602
    1   -5.45096363    8.16061044   -2.42484413      6.70635507   -6.09254202    0.00861620     17.54058689   16.99650127   17.25637911
    1   -3.96677440    8.13849536   -2.19633924      0.28658164   -0.05536520   -0.40667578     17.28676557   17.27131324   17.23352387
    8    8.33362249   -6.20923797   -1.53191125     13.36895966   -9.93861493   -6.12937609      4.36551997    4.30371302    4.31257019
    1    7.92886462   -5.57343737   -0.92393722    -16.35560448   13.01520327    2.17483215     16.56689279   17.80512023   17.35937625
    1    8.63016874   -6.83416863   -0.85068424      3.90684625  -12.35073742    3.05693019     17.41697889   16.73699008   17.38848707
    8    5.79399091    0.25227102   -7.06434800    -16.73058107    7.96278455   26.31952723      4.28457401    4.35011951    4.39709164
    1    4.92204298    0.37658266   -6.58431669     10.84429128   -2.39109938  -15.26031930     17.71312181   17.15502888   16.61954568
    1    6.34636718    0.58665747   -6.32637884      5.87412875   -7.85033923  -12.08969052     17.51473914   16.94105641   16.78132955
    8   -8.21513093   -3.00643976    8.66225918     -6.10519972    1.21110743   15.13909929      4.31213237    4.33215987    4.36805488
    1   -8.83524465   -3.20452535    9.41001666     -0.71045885   -4.21321830  -10.73842388     17.22890302   17.08112343   16.80937502
    1   -7.49756960   -2.60110096    9.20134261      4.83444390    0.22445724   -6.28013315     17.47817130   17.27777178   17.01688227
    8    1.36643875    1.09157411   -1.57967291    -16.65996854   14.28526875   10.86681881      4.28690165    4.36592801    4.35766821
    1    1.35762615    2.07832495   -1.63882013      5.14106758   -6.15198303   -5.02260155     17.46529692   17.01784552   17.04806738
    1    1.01935801    1.00132169   -0.65749178      7.06356851   -5.48879531   -2.84634586     17.54323330   17.02908152   17.14505338
    8    2.44450865   -4.24582718    0.29454807     28.93960617   -1.90454337    6.37373093      4.40465307    4.32459279    4.34441381
    1    1.74395871   -4.31188180   -0.37873916    -13.49233775    0.86130766   -3.72360590     16.71745826   17.28997706   17.11842524
    1    2.00512720   -3.84297768    1.06881793    -11.63176478    3.14366347   -2.37669038     16.76442855   17.39086736   17.16953336
    8    4.99730751  -10.10802241    1.77073530     17.18509070   -3.46728928   -2.66489961      4.37410495    4.31953977    4.32349716
    1    4.05930209  -10.05235419    1.99605934    -15.70408455    3.80600408    1.37675635     16.61465365   17.41583680   17.30705534
    1    5.11124069    9.95389727    1.78054298     -0.63532048    0.33314242   -2.64125136     17.22986989   17.28664846   17.14215658
    8    1.74827122    7.87418626    0.76383159    -10.42902049   14.51422099   14.21961401      4.30337379    4.36747726    4.36614603
    1    2.00183249    7.74759557   -0.15617239      4.12497240   -5.52365428  -14.52916726     17.42009976   17.02478588   16.66640589
    1    1.30906243    8.76528008    0.68291015      7.13683356   -8.57045535    2.11929670     17.54673633   16.90474272   17.34264273
    8    2.17195555   -5.58866583    7.63953953     16.76864171    6.82452160   25.08806236      4.37259681    4.34760159    4.39367059
    1    1.50418661   -5.68902648    6.97819825    -21.52079260   -5.46915430  -24.01612856     16.38456933   17.02789340   16.27597461
    1    1.59840364   -5.25982748    8.37586359      4.86614855   -2.03421802   -3.13423325     17.45186610   17.17318289   17.13387218
    8    8.97624679   -5.12060932    5.37142844     18.74276309    9.52526603    2.15424690      4.37762052    4.35384190    4.33390458
    1    8.25678676   -5.30667711    5.98419664    -14.28348241   -7.31245904    4.48172327     16.66774379   16.95344611   17.44059942
    1    8.67678488   -5.48841661    4.53072186    -12.28452192   -4.47484676   -7.49473261     16.75911471   17.08256931   16.96864418
    8   -9.92141665    3.96087344   -9.92433372     -4.65339321   32.96967757   18.22817302      4.31732823    4.41429661    4.37718346
    1   10.50069129    4.09207493   -9.14513295     10.06221503   -5.52602375  -15.31960115     17.67065754   17.02822859   16.62168734
    1   -9.48671366    4.86719907   -9.87675088     -6.08438272  -20.28690531   -7.22298282     17.01130260   16.43767899   16.95916394
    8    6.34933918    6.39317424   -1.99270207      4.07899310   11.69329437  -12.11812729      4.33999872    4.36132351    4.29801446
    1    7.24473409    6.32530481   -2.41580791     -9.82296342   -4.54810601    5.19146425     16.85472755   17.06273809   17.46802923
    1    6.48918543    5.89223136   -1.18136359      3.62403333   -8.95867668    9.54840801     17.40818467   16.87468934   17.65818940
    8    8.50497714   -5.83019022   -7.27172803     17.88901822    9.84412693    2.53439141      4.37478024    4.35476681    4.33577117
    1    8.78626508   -6.61311925   -6.75247144     -3.48000552   -2.37465941   -2.47376038     17.11327537   17.15653617   17.15298596
    1    7.69361235   -6.14956565   -7.66718998    -16.98540274  -11.66316434   -1.39969365     16.57674967   16.78473729   17.20770186
    8   -2.35158405    3.08013078   -8.59404998      1.52073676   14.11502689    0.69282831      4.33370561    4.36510436    4.33199089
    1   -2.35152276    2.14075783   -8.79445974      2.61382590  -14.57827212   -2.74243458     17.35972091   16.67284395   17.14593431
    1   -1.59872747    3.39019354   -9.14648531     -1.63071189   -0.54961895   -1.50577478     17.19412265   17.23572660   17.18533410
    8    7.84568218    0.28015723   -5.02953732      3.55872343    1.81677768    7.94570492      4.33915726    4.33282819    4.34926905
    1    7.63037792   -0.68091536   -4.92041393     -4.30249845    3.30854385   -0.44871961     17.08005769   17.41387410   17.23295464
    1    7.82952781    0.56723846   -4.08099177     -1.40635831   -2.03358051   -4.27721891     17.19482104   17.17649556   17.10164088
    8    7.78527228  -10.37688022    4.50030751     -8.26714465   -1.22010608    0.26225679      4.30632532    4.32643388    4.32939845
    1    7.16123449   10.43972051    5.23565936      1.81846902   -0.88188362   -5.68939133     17.33414563   17.21836961   17.01847560
    1    8.58775301  -10.16776612    4.99995979      7.67172548    4.44524010    6.64717573     17.59874201   17.44374403   17.55130736
    8    2.43473197   -6.85648458   -5.07944984     33.84525042   41.63753135   11.96042289      4.41716558    4.43692298    4.36063686
    1    3.45089353   -6.72772917   -5.15387556    -37.11950885   -7.01784115    5.88805720     15.73239467   16.96637198   17.49780272
    1    2.35634758   -7.70901437   -5.47133949      0.61965773  -32.51056577  -17.66860023     17.28054773   15.93040506   16.53146949
    8    2.00330664    7.56116971   -1.99295661     29.36388192  -11.10068017   15.97203645      4.40508780    4.29920650    4.37096123
    1    1.65803469    8.40346271   -2.28580473    -16.74897000   12.00429116   -8.59445862     16.55958248   17.75869117   16.89652597
    1    1.40476208    6.89025708   -2.33167946    -15.56594211    0.57955655   -8.05094867     16.63292849   17.29874021   16.93448010
    8    7.40577890    5.03538842   -5.42170580     -4.71918490   19.62491264    5.97912346      4.31623107    4.37965648    4.34531108
    1    7.76056013    4.19315778   -5.71355102      5.32763269  -16.57582266   -6.99728961     17.47434401   16.58259792   16.96809918
    1    6.43139150    4.87072913   -5.43982936      4.21365760   -4.82192921   -0.43740585     17.45233436   17.06407110   17.23820787
    8    5.98551254    9.06266287   -1.26814414      2.61033449   18.49696996    6.63851040      4.33738233    4.37721102    4.34622849
    1    6.14190428    8.16541894   -1.57170028     -0.45918948  -13.87031394   -9.32188065     17.22958724   16.69703326   16.87806630
    1    5.99756668    9.58158082   -2.10862870      1.87906791   -6.40849451    5.07974823     17.33050050   16.98755515   17.47337846
    8   -0.91112360   -1.04580568   -5.14204319     15.07751235   11.62666135    3.41711136      4.36783505    4.35841451    4.33867488
    1   -1.86371121   -1.23989565   -5.10396121     -9.22498775    4.40130656    2.43112626     16.89467929   17.44165756   17.35340171
    1   -0.87612033   -0.07572872   -4.86531423     -8.75752076  -21.14580415   -5.90339357     16.89119669   16.40115235   17.01605454
    8   -8.03858565    4.00129349    7.46563260     29.65902563  -23.12683052   17.23081295      4.40556619    4.26841701    4.37464589
    1   -8.89423988    3.94820778    7.07578011    -32.30512116    2.37063924  -14.46811286     15.93827418   17.35837551   16.66268935
    1   -7.97715461    3.06700085    7.80261619      2.65092425   13.94188242   -2.25293081     17.36881831   17.84502240   17.15863985
    8    9.41042681   -8.21927241   -6.16241634      7.35221994   14.40874303   26.38645624      4.34850094    4.36576116    4.39744119
    1    9.62549507   -7.88214627   -5.23401032     -6.15208758  -11.66849824  -27.05779472     17.00440264   16.77772149   16.15851151
    1    9.17423306   -9.14733976   -5.99966689     -3.22529175   -0.38168974    4.12442010     17.12470166   17.25968935   17.42199427
    8   -0.79622711   -1.06837151    5.41676864     33.52417663    2.78072745   28.87959855      4.41644584    4.33635321    4.40378197
    1   -1.24087043   -0.42704560    6.03631004      1.74533683   -5.13219286  -10.35816250     17.32433679   17.05128714   16.83650217
    1    0.12690813   -1.06799565    5.86836188    -31.06144560   -1.54494378  -22.21633245     15.98535245   17.19451906   16.34697656
    8   -5.82443362   -7.33148672   -5.70850675    -10.40050003   -0.37509446    3.73461669      4.30213233    4.32983559    4.33938272
    1   -6.47661237   -6.83329183   -6.23234789     -4.47315107    2.71949787   -4.33117794     17.07651597   17.35834877   17.08229182
    1   -5.09411899   -7.33003483   -6.35502059     10.86197017   -4.58448387   -4.13524096     17.70749010   17.06206997   17.08100549
    8    9.72581573    7.51729652    3.74449693      0.84196984    3.83787768   11.27563289      4.33034729    4.33925538    4.35831234
    1    9.89386383    7.32891921    4.70369869      0.79855986    2.85087102  -11.30559832     17.29545148   17.37188226   16.80271654
    1   10.50655904    8.08940316    3.54384461     -1.53021981   -6.83102317    1.48928416     17.21157756   16.98431668   17.31710837
    8   -6.12398351   -2.12261171   10.08640221     19.95783733   21.55466887   12.95407678      4.38111670    4.38456205    4.36273512