 BEGIN_INFO
   #
   # This is a XCRYSDEN-Structure-File
   #
   # aimed for Visualization of geometry
   #
   # Launch as: xcrysden --xsf HICOLM.XSF
   #
   #
 END_INFO
 # estrutura final
CRYSTAL
PRIMVEC
      22.61836686       0.00000000       0.00000000
       0.00000000      22.61836686       0.00000000
       0.00000000       0.00000000      22.61836686
PRIMCOORD
  927    1
    8    2.64823070   -9.50113243   -9.36627311    -33.15477832  -65.53568564   32.39358090      4.32956049    4.32921559    4.33085258
    1    2.73551964  -10.38128597   -9.88742578     -1.81503189   48.00600097   25.95962451     17.25269503   17.26347673   17.25787481
    1    2.19414149   -9.77665933   -8.48774632     32.20659929   12.11969701  -58.53815931     17.26136075   17.25471292   17.23677743
    8   -4.31593861  -10.46708533   -7.31431118    -43.14680831  -91.92844706   -1.89278346      4.32935487    4.32845328    4.33020037
    1   -3.83529042   11.24897922   -7.22080542    -20.72466323   64.21128975   -6.90299871     17.24881176   17.27023462   17.25053537
    1   -5.30146034  -10.72303118   -7.44515592     64.30662160   26.40296350    9.46709840     17.26943398   17.26108623   17.25523830
    8   -5.74220866   -3.17648345   10.91616898     59.04566100    4.08041074  -39.64874404      4.33107360    4.33012665    4.32958379
    1   -4.86471800   -2.75942518   11.24789353    -52.01249837  -17.27291524  -22.03811306     17.23965560   17.24975082   17.24658721
    1   -5.57193617   -3.35317777    9.91933591     -8.63244594   17.00278931   58.83310232     17.25065215   17.25806660   17.26690806
    8    2.24301835    6.44146330   -7.40396500    -34.81664446  -66.06018074  -11.42408523      4.32980404    4.32906259    4.32987374
    1    2.49327908    5.44589793   -7.41504118    -20.22787560   58.68291895    2.04528108     17.24650247   17.26685783   17.25339333
    1    1.21663061    6.43980282   -7.42440519     59.22536293    1.26387035    2.56128391     17.26673610   17.25292090   17.25336964
    8    6.20415575   -0.75119251   -6.35201717   2305.92833783-2765.32661724-4410.52115873      4.41967467    4.22125414    4.15947271
    1    5.59609249    0.00048302   -6.00679472     15.43213192  -32.56197872   68.41833840     17.25228044   17.24679306   17.28654172
    1    6.72981874   -0.31354608   -7.11756765    -31.44906433  -21.69747655   55.25081702     17.24466782   17.24794508   17.26796748
    8    3.11009021    5.65271561    8.08326377    -48.96394315    6.32470157   52.79738136      4.32946274    4.33029549    4.33101388
    1    2.33980593    5.01586784    8.31774227     46.64648682   39.16659180  -14.38731867     17.26409450   17.26227966   17.24879789
    1    3.03111046    6.40439107    8.77803034      4.49276024  -44.72675368  -41.72111959     17.25356075   17.24154833   17.24215117
    8    4.49733065    9.43980894   -3.80633926     45.34928138  -18.10818010   66.75058788      4.33088733    4.32972186    4.33138699
    1    4.46972798    9.93531631   -2.90763473      3.18285648  -25.08542056  -54.02429395     17.25359234   17.24712290   17.23897826
    1    5.32517939    8.83721615   -3.73234346    -51.76083300   42.62759680   -5.99864669     17.23929546   17.26438334   17.25065896
    8    7.11152860   -0.00024144    9.86884131  ******************************************     43.51159696    3.78578029   16.51244842
    1    7.63040888    0.25704747    9.02121117     -7.87151763    3.93171124    9.69920693     17.25497696   17.25709250   17.24699953
    1    7.46558022    0.64693533   10.58280800    -30.27994440  -28.78788839  -28.68122193     17.24329343   17.24723609   17.24797043
    8   -5.78294111  -10.02583546   -2.61079271    -18.13221787   42.21188847  -63.39990748      4.33003634    4.33090715    4.32913504
    1   -5.29618166   -9.79928955   -3.48581511    -30.39322831   -9.80758370   53.02945271     17.24467719   17.25069112   17.26580912
    1   -6.70707445   -9.59263630   -2.72132616     52.67021913  -27.38389755    9.60729586     17.26501468   17.24532794   17.25553206
    8  -10.51053199   -0.43921839   -1.55298016   -387.68548932 -315.45494488   98.00114569      4.31674041    4.31885678    4.33469622
    1  -10.73071497   -1.44188915   -1.54493951     18.70545535   61.55695947    2.78058078     17.25816456   17.26810988   17.25383282
    1   11.25209409    0.00013297   -1.91155308     52.38721594  -19.72845877   24.61294394     17.26560470   17.24881587   17.25933649
    8    0.59118507   -9.70716223    6.75602156  ******************************************  31908.7694399416012.9959396313199.14119658
    1    0.41210391  -10.65495742    7.13546730     28.93105675  149.37625841  -66.43492207     17.26253610   17.30594142   17.22820970
    1    1.59033663   -9.65734206    6.65142241    -64.77124499   -4.40520506   -0.85649665     17.23000368   17.25101290   17.25120997
    8   -4.79533935    8.43797228    0.45788178  ****************************35285.53968980      0.43624556    3.88532406    5.70011419
    1   -4.99953423    7.54226834   -0.00026769     22.50634818   66.77256200   25.01240860     17.25998677   17.27151304   17.25829237
    1   -5.72197779    8.82311521    0.67446834     62.89769005  -20.77278224  -23.62773582     17.26948771   17.24788556   17.24455496
    8    2.60853439   -6.21009112    4.55716808      4.23241818   42.32700317  -67.01028817      4.33049986    4.33110482    4.32920777
    1    1.84400701   -5.62397350    4.20238104     37.80788881  -44.92239432   20.02786260     17.26037044   17.23941165   17.25729207
    1    3.18425080   -6.39617746    3.72781324    -40.61123260    5.55011720   48.21939912     17.24128047   17.25271519   17.26414050
    8   -4.45920550    9.47381081  -10.13682702    -49.12464376   40.29815231  -14.90333929      4.32949982    4.33078326    4.33008632
    1   -5.24150337    9.86036659   -9.59598274     45.72267717  -20.89821028  -39.55853013     17.26363693   17.24768328   17.24133933
    1   -4.60912722    9.83751665  -11.08505753      3.42135773  -16.37704314   48.48378963     17.25229029   17.24938901   17.26289566
    8   -1.46898416   -9.71955477    9.57860924     29.80309428   28.03486038   -8.08072908      4.33046260    4.33008662    4.32994365
    1   -0.46608543   -9.58112462    9.40836761    -59.38629968    9.38128306    0.95686994     17.23789687   17.25818512   17.25095933
    1   -1.84962507   -8.76658877    9.60865109     23.83710454  -45.67796733   -3.46421838     17.25864028   17.24332741   17.25127719
    8    4.51477372    3.68926473   -3.02273348     -5.83077614  -38.34840505   58.22598009      4.33009146    4.32955929    4.33104180
    1    4.02743228    2.80612664   -2.83179426     26.78112902   54.67401212   -6.35656770     17.25865941   17.26642788   17.25190215
    1    4.90917592    3.95690498   -2.11346079    -28.82732406  -17.34901048  -52.25890467     17.24442161   17.24796506   17.23984797
    8    3.28083087    3.65574000   -9.63928434     28.24966724  -76.65863203    9.37985238      4.33058184    4.32891008    4.33047655
    1    4.06339656    3.33950220   -9.05487278    -48.44660046   24.26971978  -36.66885650     17.24016674   17.25948259   17.24305469
    1    3.02381334    2.82308826  -10.18197077     16.59309980   52.03693019   30.15837527     17.25689726   17.26581178   17.25951159
    8    9.20406093   -6.56827666   -4.92954798    -29.14960549   80.38165467   12.19753810      4.32960657    4.33157611    4.33050790
    1    8.24743470   -6.19776376   -4.89086698     58.72876615  -22.74245960   -5.52793231     17.26736887   17.24669367   17.25045659
    1    9.79573299   -5.72931908   -4.92400612    -34.69576939  -53.31901381   -6.95390309     17.24407454   17.23875762   17.24933810
    8  -10.03673428    5.49655194   11.12397469    -46.50761832   18.11030546   68.42405420      4.32935053    4.33065641    4.33131415
    1  -11.04936359    5.59345692   11.26216465     60.50440865  -12.90625732   -8.76041842     17.26748392   17.24789118   17.25023258
    1   -9.65658058    5.47839728  -10.54092103    -17.72692333   -6.24980414  -58.73766582     17.24903931   17.24946185   17.23760125
    8    0.08590149   -3.01382706    8.56262548   1057.76431101 7592.85407989-4629.21756743      4.36994183    4.62354914    4.15059254
    1    1.09453342   -3.19472535    8.62495139    -77.10195267   -8.20958136    2.10038875     17.23023091   17.24677432   17.25402139
    1    0.02489147   -2.00318010    8.39289233      4.41465529  -73.41979189   14.35130526     17.25369115   17.23183150   17.25678090
    8    9.32730410   -0.01132843   -6.72053381     21.17960848   59.83026855  -56.40373311      4.33007447    4.33151784    4.32806778
    1   10.34967295   -0.00420329   -6.81359834    -55.00347663   13.44274015    7.34638453     17.24009137   17.25848111   17.25467129
    1    9.07355439    0.98304103   -6.69261916     16.14086036  -46.51404667   -3.50468559     17.25676887   17.24346639   17.25137848
    8    7.82011200    7.79115510    4.81439708     50.69682121   30.79518028   43.48019116      4.33096800    4.33060612    4.33102935
    1    7.88169570    8.80441628    4.96758301      3.19144953  -57.40739231  -11.10282574     17.25463634   17.23888248   17.24929895
    1    8.67522448    7.42227144    5.24642870    -47.69145602   30.54633784  -25.79043519     17.24136645   17.26161300   17.24603507
    8    4.02809012   10.22347315    0.20809784   4343.3029909211689.47747635 4716.98790154      4.50061186    4.78443825    4.51329101
    1    3.24987316   10.85975804   -0.00030970     72.11720703  -79.71738646   10.03717184     17.27524021   17.22477180   17.25443690
    1    3.57119828    9.32056956    0.38101979     27.07663265    3.30990381 -106.16828200     17.25908780   17.24353775   17.20787157
    8   -0.69343057    9.24955400   -1.84275155  -2412.78410642 -453.42291542 2139.63054524      4.23529716    4.31161974    4.41242489
    1    0.00076844    8.94997517   -1.14827799    -41.38426977    7.99589463  -62.47469869     17.24221354   17.25264877   17.23293502
    1   -0.58697305   10.27009722   -1.87601856      3.48666812  -74.82997463  -16.94962624     17.25522258   17.23134142   17.24468841
    8    3.74327534   -0.00135277   11.04762517  ******************************************     48.28370286   93.49729186 -533.01564430
    1    4.56087569    0.58338956   11.25643682    -46.23069060  -57.64567514    6.37351021     17.24156260   17.23383797   17.25760540
    1    3.55421943    0.18075463   10.05548231     32.75509693   -6.93384167   21.08161414     17.26472288   17.25142499   17.25043706
    8    3.90708714  -10.31415717    9.79089661     -3.16445346   33.03323355  -80.28864269      4.33000687    4.33091191    4.32882502
    1    4.74692145   -9.95214878    9.32445024    -45.28029853  -25.73322504   32.96143802     17.24214624   17.24536181   17.26159415
    1    3.19431921  -10.31685917    9.05209064     45.07683186   -1.10755347   46.14204020     17.26413023   17.25201053   17.26432571
    8    6.00783101    0.01511599    9.52480802  **************13974.18900548**************    -34.85668628    4.87387000   -7.88499937
    1    5.74817086   -0.97527009    9.45005326     29.70694801   65.48258687   20.16473552     17.26258789   17.26983581   17.26043940
    1    7.03323557    0.00006834    9.57289065    182.88204217  -44.37007058 1211.32688673     17.34447873   17.23277732   17.78485380
    8   -1.33586215    4.49389159   -7.48685916   -112.65867629   41.77186857 -167.86125552      4.32494847    4.33298435    4.32482342
    1   -0.32760717    4.40012696   -7.65589339    -64.35886887   -0.73947263   33.39024476     17.23572858   17.25106995   17.26517250
    1   -1.74520899    3.68758702   -7.97284457     22.76851685   48.61983742   41.76898016     17.25780137   17.26455050   17.26518305
    8    5.81992889   -9.23874538   -3.05335121     50.24470047   -6.74834001   50.34428792      4.33104422    4.33022990    4.33090908
    1    6.36017755   -8.57912236   -2.48151116    -33.27176400  -42.22101820  -28.34982530     17.24411976   17.24150404   17.24654671
    1    6.05994350  -10.15832811   -2.66518737    -16.75266090   52.54253785  -21.13878079     17.24792402   17.26504249   17.24761071
    8   -9.87578243    2.44081659   -0.00349593  **************************** 3588.81648686     10.87209166   23.64997606    4.46947760
    1  -10.64263573    1.75830160    0.00056164    426.61970879 -453.25156552  -18.13072524     17.43099607   17.04559288   17.24460839
    1   -9.02800422    1.86184864   -0.00241429    365.54246767  205.83349005  -24.96556959     17.42262524   17.33621675   17.24160575
    8   -2.65026500    6.00411133    0.93878516   -495.29916752   69.57647237  344.65699922      4.31011979    4.33325374    4.34212063
    1   -1.68204128    5.75074720    1.16747442    -38.53062035   36.96578530  -27.51804903     17.24659559   17.26585524   17.24286816
    1   -3.05538867    6.27714445    1.84170640     22.32773315   -4.19873878  -56.51677061     17.25741357   17.25376735   17.23791686
    8   -6.05635190    0.48909095    0.05430793   1262.70923012-5878.19573203  572.57944312      4.37958235    4.10189358    4.35211925
    1   -5.12569841    0.05819971    0.00792016    -59.18011679   23.35816730   14.18396687     17.23713191   17.25780019   17.25811291
    1   -6.51809907   -0.00000058    0.82986730     30.32692781   22.99304077  -20.40230052     17.26041724   17.25702562   17.25235096
    8   -8.13779098    2.79584893   -4.33702970     39.62500508   74.95842696   42.37474193      4.33105632    4.33153626    4.33096774
    1   -7.26382125    3.31170206   -4.49204809    -56.91290652  -35.75068465    6.77605874     17.23737616   17.24270681   17.25367744
    1   -8.61567795    3.33178286   -3.60331430     26.09428325  -38.53147729  -47.09216245     17.25846768   17.24169917   17.24016963
    8   -7.57605630    3.97333849    6.56146989    -23.06735652  -21.19977748  -83.69834776      4.33000332    4.32981727    4.32863056
    1   -8.48797034    4.28280872    6.20574581     53.78536118  -20.39762125   30.12042255     17.26573797   17.24706440   17.26162739
    1   -7.22481856    3.34402587    5.83038108    -24.90826849   33.61019331   44.41877782     17.24567239   17.26007365   17.26360924
    8    5.30260806    8.14772288    7.49375697     29.06735008  -46.60058704  -49.81453032      4.33066532    4.32954495    4.32939213
    1    5.40267853    8.20467198    6.47363774     -2.72014653   -5.61985968   60.39523514     17.25236728   17.25067412   17.26744928
    1    5.67706732    7.22117800    7.72871368    -22.59683992   51.88090418  -12.18022109     17.24680574   17.26472141   17.24979223
    8   -6.51283042  -10.06035324    0.43481455     42.29244677  -32.74366141  -34.67794933      4.33083908    4.32982491    4.32976451
    1   -5.61315976   -9.81303074    0.00660183    -57.06416133  -20.33021463   20.05644588     17.23771623   17.24640744   17.25634151
    1   -6.66262290  -11.03581950    0.15213486      9.91849076   53.71082157   12.79724715     17.25506151   17.26489373   17.25493763
    8   -4.61390089    0.25373336    6.50722319  10575.4425600616698.50071041**************      4.73982255    4.97820023    3.80245931
    1   -3.72217597    0.00017929    6.06624003    -55.34939413    9.19356916   24.00774216     17.23829663   17.25354811   17.25789316
    1   -4.67063302    1.27151999    6.38543688      0.30216356  -52.52568804    3.47220543     17.25187275   17.24109186   17.25258374
    8   -0.84723326    0.75639387    5.98768608    -17.08808700  -66.82622789  -36.61420382      4.32936240    4.32941254    4.32928873
    1   -0.92687648    0.22362075    5.11378922      3.03505378   35.84446527   55.30111573     17.25288959   17.26214294   17.26686872
    1   -0.63592781    0.04305510    6.69508986     -7.19255166   51.08153929  -30.89570070     17.25176419   17.26660999   17.24693512
    8    3.66538835    9.38318116   10.43674146      9.69016296  -71.56155176  -46.50733654      4.33019102    4.32876551    4.32954481
    1    4.24663657    8.54667892   10.56455282    -31.58527785   58.56668301  -11.28240050     17.24517261   17.26873218   17.24902100
    1    3.43562595    9.37547404    9.43622375     16.90129891    6.27171939   58.26205004     17.25723694   17.25511108   17.26670712
    8   -0.86715464    5.64257181    0.00022416    541.69103813 -200.63158422 -253.37215450      4.35114783    4.32427535    4.32001869
    1   -1.65206441    4.98090524   -0.00026985     28.81984083   50.51193668   -8.31096314     17.25615113   17.26708369   17.24888833
    1   -0.03523246    5.04104962    0.00066828    -51.17916118   37.03316185    2.28176494     17.23953036   17.26183028   17.25352343
    8    5.72151206   -0.00810908    6.05564135      3.52021624   24.03827519   84.16453970      4.33046780    4.33085031    4.33183608
    1    4.96713388   -0.00273418    6.75192228     43.91878501  -10.71566346  -33.36935424     17.26315869   17.24766464   17.24588015
    1    6.57961340    0.00313152    6.61910615    -46.02312744  -11.97025837  -37.62296949     17.24207132   17.24732747   17.24243134
    8   -1.10956754   -6.79764413    5.02070028    -94.36288128   16.36225321  -28.65404605      4.32834884    4.33041253    4.32948769
    1   -1.61293894   -5.93701600    5.26539689     36.79179043  -52.77083956   -7.09533196     17.26287749   17.23917645   17.25215706
    1   -1.80986844   -7.36317295    4.52711401     47.67964777   34.85566925   30.27433961     17.26543132   17.26133024   17.26010677
    8    4.23286271   -9.68686800    4.86889011     64.30092224   17.97718687    8.59498638      4.33114013    4.33034137    4.33043924
    1    5.12870225  -10.18135038    4.78587351    -53.10646635   32.19375891    3.91551599     17.23944616   17.26104779   17.25332813
    1    4.50267002   -8.70880962    5.02560451    -16.58820899  -52.99589072   -9.92356353     17.24822194   17.24049288   17.24991007
    8   -0.46228482   -3.06643325   -8.28659506   -389.32281701   30.74024471  128.78268095      4.31503236    4.32962448    4.33543683
    1    0.00004680   -2.15003899   -8.26576966    -33.44224474  -25.04213863    1.59741091     17.24308542   17.25196299   17.25342095
    1   -1.46345415   -2.83942850   -8.29174416     53.92056666  -17.58710118    0.44811860     17.26467721   17.24741581   17.25256428
    8  -11.00126869    3.10590904   -8.86900724    -80.32277946   18.64368428   16.97164358      4.32882918    4.33065650    4.33038692
    1   11.03764720    2.40473895   -8.39308737     41.18810356   41.75076887  -31.55297939     17.26394215   17.26281899   17.24410123
    1   10.98613656    3.90598996   -8.99421786     39.31771435  -53.98997683    5.18112154     17.26243337   17.23794303   17.25330197
    8   -9.75471770    0.62488208    2.58860653    716.28810038  146.02047834   27.38922662      4.35790286    4.33762501    4.33152834
    1  -10.56552981   -0.00387263    2.55490552    -11.08182016   49.11812916    9.86474550     17.23833630   17.26704104   17.25646313
    1   -8.94790514   -0.00647266    2.52253863    -54.91033011   38.18135809    9.85075805     17.23745837   17.26203732   17.25601950
    8   -5.08316654    5.83864935    8.14863516     61.49917578  -39.06681181   29.38461429      4.33122570    4.32964319    4.33077985
    1   -4.97290380    4.82199613    8.05832360     -9.59902339   60.74827424    0.48047712     17.24952723   17.26757031   17.25169271
    1   -4.20224865    6.14697898    8.57627451    -47.47918756  -15.78212355  -29.20600380     17.24162521   17.24905179   17.24453737
    8   10.17045220   -3.65186767    6.20572391     27.12524818   54.39383661    1.07685627      4.33056816    4.33088225    4.33014805
    1   10.03598528   -2.85553063    5.57193393      8.79244796  -44.23623100   40.67315457     17.25482087   17.24222208   17.26308308
    1   10.84386057   -3.30628775    6.89930786    -39.20470780  -13.57581006  -40.85782253     17.24302177   17.25048354   17.24250279
    8    8.39282089   -3.38451426    8.55930069    -72.18496070  -19.43289910  -15.65383321      4.32898141    4.32982614    4.33020523
    1    7.92502280   -4.29048397    8.43984806     28.55885741   53.97804052    4.23210586     17.25959308   17.26578918   17.25289941
    1    7.74633232   -2.71261271    8.12975564     44.18834214  -37.76084289   20.71025177     17.26448015   17.24349450   17.25665362
    8    3.84272711   -6.88024102   -7.12435890     54.94472745  -21.69180264    3.63266404      4.33086174    4.32990075    4.33049201
    1    4.72037610   -6.36170815   -7.00262111    -52.33546770  -32.26296319  -13.56764750     17.23952803   17.24408890   17.24797421
    1    4.14451249   -7.80708102   -7.44651518     -8.36845103   52.71284757    9.69942321     17.25223411   17.26499460   17.25299173
    8    5.50937974    0.10521762   -5.02317284  -2094.81373060 2836.89597892 4231.11889461      4.24796088    4.44031673    4.49424487
    1    6.51268565    0.00014697   -4.83266993    -57.46526280    0.67167019   -9.57956592     17.23875805   17.25151379   17.25055552
    1    5.10040344    0.29757204   -4.10139443     -3.29386226  -12.94365536  -40.20348417     17.24637082   17.24899611   17.24537878
    8    2.55298045    6.22519832    4.99285060     90.64839472   -7.31755531    3.24265045      4.33199260    4.33037758    4.33036016
    1    2.85095301    5.25464025    5.14496486    -22.59372582   54.22378017  -11.35104411     17.24593940   17.26520877   17.24916706
    1    3.43062405    6.73133094    4.82695493    -55.86466042  -38.60846333   11.82800166     17.23800978   17.24138815   17.25579644
    8   -6.75576892   -0.97312709   -3.40883008    -68.02696119   34.97283509   33.66012323      4.32912635    4.33067914    4.33090104
    1   -7.68444854   -1.40403032   -3.33289126     55.37911701   14.10960506   -7.56094860     17.26614103   17.25384807   17.25009743
    1   -6.90915555    0.00003280   -3.12007397     21.43827960  -49.84573839  -19.80294016     17.26000446   17.24181033   17.24703737
    8    4.72076242   -2.76941531   -8.60404169     42.46056790   56.35145867   15.11871639      4.33099919    4.33094332    4.33055176
    1    4.29549655   -1.88084273   -8.31502277     18.74033845  -49.94230474  -24.14332065     17.25578022   17.24073743   17.24510266
    1    5.69937549   -2.52556743   -8.79587417    -64.48630263  -13.12465371    5.37016172     17.23540205   17.24953812   17.25263886
    8   -9.13892298   -9.47854961   -6.97300756     -3.31213088   66.76016564   10.40352354      4.33019875    4.33118657    4.33064918
    1   -9.97533906   -8.97720346   -7.29388967     49.04187038  -28.59850487   10.66095966     17.26445594   17.24564161   17.25353864
    1   -8.44857884   -8.73503184   -6.81627162    -41.86308050  -42.16256016  -16.56521260     17.24199773   17.24255319   17.24702031
    8   -2.97045921   -7.52070916   -2.62288923    -22.68800588   54.34153042   33.74988935      4.32993407    4.33097951    4.33077968
    1   -2.49907809   -6.63364985   -2.41101509    -29.81630952  -49.56970249  -14.41647850     17.24472372   17.24088868   17.24867199
    1   -3.94133286   -7.36233500   -2.32924323     55.47633267   -7.47620376  -15.80804246     17.26585737   17.25092264   17.24895633
    8    4.10713367   -6.41568992  -10.06035324    -69.21571250   53.14643381   16.67968528      4.32893270    4.33114454    4.33044794
    1    3.10401700   -6.63310593  -10.07981761     64.23881008    8.10383375    0.44240417     17.26912823   17.25351342   17.25249573
    1    4.14303368   -5.43589316   -9.75594737      1.08977357  -58.92659500  -19.09404280     17.25336715   17.23779366   17.24756139
    8    8.54585677   -0.00031220    0.74191058    298.54240697  394.91205512    4.20512103      4.34165178    4.34548900    4.33202316
    1    9.25326161    0.66701075    0.41295695    -46.89384647  -25.41128793   20.32056432     17.24002828   17.24898156   17.25766118
    1    7.83924641   -0.00043140   -0.00279126     12.39263454   19.60106317   36.88628725     17.24984859   17.26101653   17.26011601
    8    8.14570016  -10.92199468   -0.00774288    381.36866093-5778.72192731   14.60096491      4.34468580    4.10682618    4.32997102
    1    9.06694228   11.25331871    0.08689595    -44.64009075   18.36138900    2.21274142     17.24346689   17.25547977   17.25454215
    1    7.52087028   11.08843190    0.53437664     37.60616250   35.10799799  -25.36759101     17.26193736   17.26098211   17.24751458
    8    0.00761176    8.36191451    0.51937385     77.78786000   19.07369546  -36.61225545      4.33179352    4.33021689    4.32997302
    1   -0.00062528    9.24689185   -0.00089561     -1.40791406  -40.09482904   56.71690038     17.25158342   17.24497302   17.27148076
    1    0.93621454    7.96900691    0.32637491    -65.41658061   21.91209152   17.99942969     17.23439063   17.25763454   17.25808896
    8   -8.07600191    6.02432568    8.63836050     33.68771948   23.33742412   53.76624616      4.33061304    4.33083317    4.33094762
    1   -7.77376525    5.24199981    9.23043107    -20.39351324   39.77892912  -32.53422847     17.24707355   17.26104856   17.24503489
    1   -7.69479376    6.85343242    9.10870763    -23.02489570  -57.63350192  -25.93469634     17.24677971   17.23664878   17.24649848
    8    8.45950522   -0.01067788    3.70231983     22.90482608  103.87058202  -27.16826136      4.33110220    4.33268809    4.32935483
    1    9.19583681    0.68797366    3.54849914    -45.07653866  -30.23776504   14.42150553     17.24105935   17.24719184   17.25708254
    1    7.60336593    0.54773656    3.79777400     46.79186430  -33.06566913   -5.30840569     17.26328309   17.24443413   17.25122881
    8   -6.40325629   -9.44820546    7.12172145    -23.25424420  -67.58151509    1.38802476      4.32957695    4.32920472    4.33034117
    1   -6.06119406  -10.04195338    6.35729102    -11.65929379   32.50961328   40.78835239     17.25131813   17.25998420   17.26162812
    1   -6.84466951  -10.10936043    7.77128791     34.11736518   33.81630352  -36.82129615     17.26247579   17.25976678   17.24368767
    8    0.00053543   -4.39458068    9.49091361   -420.81273465-7107.38323426 4093.41405400      4.31458428    4.05437194    4.48766184
    1   -0.17172461   -5.33520157    9.86436250      7.28650478   52.30728956   -1.86474313     17.25375270   17.26458175   17.25602801
    1   -0.62146498   -3.79111245   10.04125320     35.19517220  -50.29827358  -59.45410661     17.26070965   17.23728851   17.23266605
    8   -9.94119753   -0.56587370    7.90427279    -19.11760443    8.14420864  228.47896540      4.32888677    4.32888026    4.33895676
    1   -9.72208767   -0.00020954    7.07605855      3.45477717  -46.79427408    8.18655006     17.25646403   17.23844186   17.24663033
    1   -9.59756172   -0.00040987    8.68921016     -4.18925630  -34.38602784  -55.26082969     17.25461224   17.24385948   17.23723447
    8    9.36810259    4.50023827   -0.00055003  ******************************************     32.29293294   18.16399504    8.33730622
    1    8.53790295    5.10410211    0.00672030   -165.94960965   58.38575993  -11.19132974     17.17008514   17.28500965   17.24766739
    1    9.43369371    4.15660039    0.96461568    -13.00146356   13.05161251  -53.68925137     17.24751876   17.25422000   17.24005916
    8    8.16508523   -0.60303295   -1.72704283  ******************************************      0.77031304   -5.66046323    3.75533979
    1    8.69239613   -1.48348218   -1.70136599    -36.52897318   49.27748636   -8.22115378     17.24262336   17.26401173   17.24911860
    1    7.19672970   -0.89833749   -1.89720873     52.13452864   26.40260886    7.48117057     17.26430767   17.26065120   17.25382940
    8    0.83435938    0.01540002   -6.83446037     -0.88919326  -87.35803559   16.75914110      4.33057267    4.32845174    4.33120257
    1    0.00611069   -0.59048105   -6.86271358     60.50328536   19.86846908   17.56562188     17.26960118   17.25423848   17.25971082
    1    1.62050200   -0.63250705   -6.96140399    -32.42115137   33.42551016   -2.85792628     17.24731039   17.25976376   17.24975622
    8    4.25769444   -6.51361776    7.61878699     54.16984210  -14.23660151   40.28226884      4.33092327    4.33007746    4.33090440
    1    4.62555022   -7.46751471    7.71192762    -17.25384668   59.75070520   -5.46476714     17.24905201   17.26781689   17.25106900
    1    4.92037201   -5.93873284    8.15201319    -34.21458057  -43.31190940  -27.86771612     17.24507295   17.23998900   17.24626048
    8    0.09736898   -5.73151448   -0.49453968     57.82568295  -54.73429121    4.45105668      4.33116492    4.32933058    4.33016613
    1    1.08258446   -5.71717193   -0.78278887    -62.79874303    1.59098204   22.99920044     17.23612026   17.25326483   17.25933565
    1   -0.00280849   -6.62378716    0.00317245      5.29014824   48.52217592  -23.63973554     17.25358357   17.26353609   17.24783228
    8   -8.79547708   10.71745370   -8.64151925     22.28412328  -31.48134934   80.16876420      4.33072344    4.32960074    4.33156996
    1   -9.50761816   10.38003542   -7.98355491     41.82660396   28.13945194  -45.25609867     17.26284365   17.26089540   17.24015289
    1   -7.92290646   10.68419106   -8.10164002    -63.46332947    8.00915407  -36.27448478     17.23457519   17.25552111   17.24276757
    8    7.42989778   -1.74763921    0.69730178    204.95626096  -76.94889374  164.68581473      4.33647919    4.32744426    4.33777640
    1    8.21597147   -1.10066200    0.82949033    -30.05547280   18.77886577    9.91169155     17.24826821   17.26810423   17.25831845
    1    7.77358744   -2.41650380   -0.00154509    -15.90527331   67.05882364   55.27484274     17.24935574   17.27437618   17.26878446
    8   10.81852226    0.58312641  -10.82549813    -36.08257711  -68.36183042  -36.04407066      4.32944033    4.32923332    4.32940937