 BEGIN_INFO
   #
   # This is a XCRYSDEN-Structure-File
   #
   # aimed for Visualization of geometry
   #
   # Launch as: xcrysden --xsf HICOLM.XSF
   #
   #
 END_INFO
 # estrutura final
CRYSTAL
PRIMVEC
      20.78400715       0.00000000       0.00000000
       0.00000000      20.78400715       0.00000000
       0.00000000       0.00000000      20.78400715
PRIMCOORD
  927    1
    8   -1.95625805   -7.87693294   -5.81153386    -21.37600414  -44.31032411   -6.60132992     -1.01328720   -1.30713298    1.50009199
    1   -1.76244842   -7.19045676   -6.43291481     10.34271700   26.71999031  -15.43957480     -9.54488467  -20.42422427  -17.63672907
    1   -2.25951149   -8.58129912   -6.45948625      9.14353579   20.45025658   25.74390252    -16.99453415  -11.07414234  -10.90280151
    8    0.79044385   -3.70076023    4.04586906      0.18013227   25.90198035  -27.33778785     -5.02185123    1.11872425    4.96877609
    1    0.39069542   -3.41771733    3.18305494      4.62839174  -15.55802231   22.86047210      1.34741811   26.10097107   -1.87469465
    1    0.97288029   -2.81914913    4.45341351     -2.82953700  -10.18183444    3.44972925     -4.96209515  -31.34567999  -12.34049494
    8    9.81605633   -4.11489579   -9.26254303    -10.08501277   19.36126112  -37.91827624     -0.25980617    9.49408682   -4.65718720
    1    9.52649488   -3.73884948  -10.16050322     23.45891189  -15.05701924   42.82379041     -2.20000348  -25.07138029   -5.16725154
    1  -10.12580815   -3.64494602   -9.05194412    -10.84291232   -3.22589951  -14.67514375     28.35017447   -8.53389252   -7.42811310
    8    2.26585014    4.74965287    2.15226860      2.25667616    9.89713311  -11.46989782      1.68510047    3.84015322    1.58339134
    1    2.12736025    4.18702795    1.39814563    -18.21932693  -33.94059083   -0.06763288    -22.03818774   -8.88494010   12.08634575
    1    2.81999285    5.38119852    1.69789754     14.47955597   24.20178780   12.21680909     -8.60196949   21.16343017   11.36633936
    8    4.20923958    1.42773016   -1.88318123     61.46037177   12.61583035  -14.85496440     -1.85673360    1.76818623   -0.05517978
    1    5.15370721    1.21198748   -1.55366202    -59.21255967   18.24635329  -23.74509732      1.71701558   20.53554623   37.09392786
    1    4.35508133    2.03470384   -2.69632581      0.43197344  -25.38709815   38.09827389      0.34853672   12.68160789   -5.16246908
    8  -10.11119091   -0.63643372    9.05314085    -16.05150106  -27.66666194  -52.39387233     -3.53753899   -0.09450852   -2.87249806
    1   -9.90617621   -0.22202273    9.82169579     13.23748640   41.53204850   57.15375853     19.54474520  -14.91302733  -11.54762714
    1   -9.81240870   -1.52040373    9.24565653      0.72555620  -18.31536728   -5.79102468     25.03763805   10.93492724    6.16193418
    8   -1.44627742    4.39786762   -9.82836716     -8.92785005   76.73240285   19.73731699     -7.99286502   -4.04816355    3.63338323
    1   -1.52922838    5.30848220   -9.39447854      0.69093339  -51.53600856  -14.32945964     10.76056131   20.42288877    5.82440756
    1   -1.28048302    4.67467157   10.04627542      1.15891007  -17.06655831   -3.47809264    -14.95041600  -36.18313532   -8.52046876
    8    8.04473214    7.81053635   -0.64882265    -35.09828302   29.26001056    9.21197482     -1.28127922    5.22335750    0.52324370
    1    8.20002166    8.27384151   -1.49289328      9.35745146   -8.02999367    4.36503288    -12.95661522   11.63215420  -20.12734863
    1    8.64253280    7.08049495   -0.62794222     26.88309197  -15.64153060  -13.81238046     11.48781814   -2.33901127   14.29060504
    8   -1.93647683    2.02415411   -6.98424042    -14.25289906   27.35658695    4.54171974     -1.71692365    4.30260973   -5.50990951
    1   -1.31094097    2.78433436   -6.88101834     -9.26448985  -11.80545222   -2.66780528     -7.75176171   32.05725249    6.46443756
    1   -2.81610446    2.41864899   -6.78628559     20.74190036   -7.56249369   -3.24763192    -14.50778107    0.99278173  -11.03815887
    8   -8.11479364   -9.52371314    3.44505410     -1.34206717    0.77080793   34.32566148      5.95541586    3.34871950   -0.34696835
    1   -8.61005140  -10.20824276    3.90870861     -5.03621530   -6.56059431   -5.20494500      5.51435046   22.44509660  -40.44145302
    1   -7.98599276   -9.87684551    2.58131673     -0.26393054  -16.31505873  -32.65047003     -8.72988399    8.57046228    8.40335356
    8    4.70247716   -8.89815332    9.40625452     22.95066234  -17.76244303  -29.62232240      0.45624082   -0.04971446    0.52526296
    1    5.17789593   -9.65845996    9.81438904    -14.91267680   14.36103653   -7.10199305    -24.95156326  -28.93529044    5.51105076
    1    4.94105286   -8.99190582    8.43460097     -9.75344371    8.66210554   35.60043112    -28.11845029    2.89209764   -3.94167495
    8   -4.55760405   -0.99857845   -6.36062071     14.42270770  -17.07424626   27.27284455      0.88500498    0.34371713   -6.68118199
    1   -4.66864016   -0.23274588   -6.91121603      6.46645342   15.43628142   -9.46018034     -9.89356119   13.28852613  -26.72208628
    1   -3.65905239   -0.87739885   -5.93842886    -19.10263252    3.42863897  -14.22362032     -1.26577178    5.84162870   -3.43161094
    8   -0.12018678    8.00531630    8.78317118     -9.64899526   -2.80908553    8.36840467      2.58332422    1.51870114    0.42743450
    1    0.68981083    8.58707134    8.80928214     -6.45378894  -15.46151654  -14.00408999      6.83773114   -0.33944710   -1.16086494
    1    0.03491860    7.31740806    8.09002027     20.58027615   16.52301898    2.60687445      8.76837160    9.89305153  -18.39059672
    8    4.66255333    3.06875493   -3.88556249     37.37393139  -31.74383502  -43.60824257      3.07496758   -1.07951515   -2.53614238
    1    4.30211155    3.89384983   -3.71763484    -25.19895194   50.60080635   15.07125257     -7.55169967   -6.67693694   15.58586361
    1    5.22278402    3.24714215   -4.72336367    -19.97339117  -17.52795083   40.43769207      4.56759659    0.84809475   -2.37237411
    8    8.03201919   -8.43908953   -4.37823298     -7.31330489   45.21762846  -13.10656511      2.56077341   -1.74549367   -2.89314334
    1    8.01189498   -9.12773695   -5.05442067     -3.74873783    0.88373352    0.95586403      3.68169309   12.74304331   14.73356734
    1    7.78637139   -7.59187265   -4.86041771     13.21589707  -39.20417431    6.11575437     -7.51601283  -10.73155789   -8.55979207
    8   -3.45178277    8.83143721   -1.51864615    -12.69222694  -31.66341175    1.00931136     -0.92897077    3.85529629   -4.02151315
    1   -3.32632678    9.46758859   -2.21489185      6.72121322   13.42169292  -13.26239592    -14.39813741    5.67039795   -4.31049654
    1   -3.59314846    7.99172845   -2.00530560      6.50936397   17.12410276    5.58474105     19.24366051  -16.63263745   -4.18094481
    8   -7.14491604   -5.99759856    5.60511542    -15.39516082   16.28592385    3.95970790     -3.19137588   -4.12684956    6.22638139
    1   -6.28160775   -5.93378494    6.02367483      8.94846015    4.75816899    3.79721973      6.90437036   -8.38319205  -19.76348284
    1   -7.11732017   -6.87195228    5.21419966      2.47519684  -16.29921904   -4.24396645    -14.16175485   -2.88961394    4.53006641
    8   -6.37239991   -8.49411194    5.05544582     18.59063869   11.07369911    4.11541944      2.64079410   -6.11778267    2.69922240
    1   -5.55544432   -8.60038206    4.53076208      5.59974063   -2.08761565   12.94760315     12.33751991    7.99938793  -19.01960477
    1   -6.97974135   -8.99088300    4.49687916    -21.74503635   -5.27268787   -3.44900581     -2.64273299    1.23134499   -5.32504054
    8   -1.66522588    6.59130811    3.49294269     14.79301361  -11.28390867  -17.41019974      2.74084669   -0.37519304    0.40574711
    1   -1.91795457    5.90684234    2.79187048      3.73114055   25.17138338   18.08420199    -12.20887076   18.24901262  -20.36571135
    1   -2.38949135    6.53568236    4.13444272    -10.92128784   -9.04829606   -0.31937870      9.08253200  -24.01438826  -20.96641110
    8    4.03389882   -0.90793335    7.79439588    -37.94798475  -72.07377614   17.44854915     -3.15623316    5.58542000    2.47430969
    1    4.92254475   -1.23174449    7.97545691      4.48344756    7.72867386    1.46304676    -12.57476327    4.43413014  -20.02453823
    1    3.48353044   -1.74883345    8.05396212     29.44620103   64.35796071  -15.89733013    -16.56984444   26.50053370    2.96648155
    8    1.48145011   10.08688622    1.66958231     12.51133383  -39.84405727   54.70063976     -4.58063975   -3.57840323   -3.29774550
    1    0.71925500  -10.14787118    1.82975724     -6.07952003    9.87256514    6.34006423     26.37938039  -35.50647622  -18.57896506
    1    1.59404261    9.56780867    2.56112144     -1.20831153   26.44443606  -58.06832666      4.70227499   -2.19827959  -18.26411981
    8    3.30811287    8.00817658   -0.75929626      4.74052136  -64.68624631   -3.95144769     -3.52993075    0.69161617   -1.86058929
    1    2.63836967    8.64821993   -0.89821665    -13.13041716   37.47659972   -5.34647625     21.25302469   11.39911071   12.31252675
    1    4.12105399    8.49385527   -0.64454428      8.88547590   20.01561735    5.52306384     13.84635111    9.64637547   -7.94746226
    8   -3.09003099   -9.43604740   -3.22551096     61.76444060   12.31024057   -9.52859593      3.02538893   -1.83592600   -4.12402626
    1   -4.00658374   -9.44552766   -3.31910166    -46.45906079    3.52302722  -13.65002218      1.31656708   -8.25905092  -37.75763436
    1   -2.74957209   -8.91911293   -4.00584382    -18.81121929  -16.92880389   20.69523621      6.04346767  -24.25497137   -2.45086031
    8    2.79238360    9.04816535   -8.46886188      0.92924044  -25.79677270    1.67916811     10.08484310    3.86680895    1.73920757
    1    3.50174058    9.32137171   -7.82061270    -25.67246106   27.11137153  -21.47341134     12.89233652   -0.35039144   24.89110884
    1    2.45410361    9.84441585   -8.97752183     27.62444763    1.79125878   25.98799731     -0.33863566   -2.03904634   -7.89649808
    8   -5.74100592    8.96315551   -6.53844778      8.01802207  -19.91789150    4.15046405     -5.02215333    2.19993794    1.99180902
    1   -5.52276716    9.86893709   -6.48998919     20.03025207   38.02104911    9.94918393    -10.16364977  -20.58706084   31.34211551
    1   -6.60677765    9.03850351   -6.88445915    -31.01239694  -15.51338601  -16.28618976     55.70952614  -12.19362178   10.32207419
    8    1.06758061    6.23598586    7.09502370    -31.86712988   13.00425551  -25.76021202      0.43100927   -1.74517045    0.99067492
    1    1.83729404    5.75708924    7.31905051     40.73804869  -19.78980403   16.92380307     -8.63358330  -18.04535053   -3.46358910
    1    1.11212612    6.14620017    6.10518254    -12.90063677    6.15986586   12.97611891     10.24901337  -29.11714656    7.19459257
    8   -5.96513218   -1.32766620   -4.01644499     21.01892605   -3.40582453   -0.33322611     -5.35912041   -4.19765529    0.45751492
    1   -5.51754074   -1.38590541   -4.89267868    -11.74024560    7.65465930    8.67321729    -22.12079031  -13.07318394   -4.91565426
    1   -6.70432410   -0.72527376   -4.17844224     -7.31489903    4.86554737   -8.90538244      8.11691920   -9.23461768  -11.32200315
    8    2.20776603    8.41077942    3.67569286     31.34204469  -16.40466720   15.52079091      3.99923339    3.30649658   -1.83571841
    1    1.85140036    7.58233751    4.03273737     -7.92384098    4.44152711   -3.96919522    -17.31360503   36.12398233  -30.77546153
    1    3.18026117    8.27172377    3.83737976    -23.99681765   11.18768642  -10.21917507     -2.57045347   -4.02003741    5.04613018
    8   -6.41041742   -2.82488749   -7.09760787      5.88953670   23.91079010   17.68585556     -0.26181280   -1.35434553    2.93205891
    1   -5.72934348   -2.20539280   -6.70791277    -18.72340941  -13.67579014  -12.17864496     -0.60965640  -17.95356156    4.99686543
    1   -5.83341384   -3.46517052   -7.53658327      9.00847859   -5.71483854   -3.11225447     11.32039251   15.15003237  -10.53939163
    8   10.09039101   -6.26663304    4.01713834    -35.77771204   17.21415615   -2.61762681      5.71323718   -2.81817501   -1.09938253
    1    9.61814524   -5.40431764    3.96980673     21.92318621   -6.34049461    1.61363930    -23.14471760   14.27055004   -6.50790766
    1    9.32223063   -6.85166125    3.86127812      9.86294315   -8.67865942    0.61974651     -7.84634453  -30.06332373   23.73276868
    8   -0.69901262   -8.04126697   -9.60010001    -27.65454625  -13.88915869  -27.73763635      1.21387279    0.92840994   -3.50001881
    1   -1.28159535   -8.43278120   -8.93517822      5.83647021    1.32636326   17.81151518    -20.03073136   -1.44692664  -49.77398143
    1   -1.36632890   -7.97917619  -10.32143039     24.34440884    7.73954248    6.44621606      6.10721285  -19.70814122    2.29634746
    8   -2.36324458   -2.51696026   -8.54455525     15.68067655  -28.44965488   15.50666791     -8.47138554   -9.13186492    3.16797647
    1   -1.39995817   -2.66761723   -8.56911948    -10.59814966   -0.94726027   -1.26105810    -26.56337372   -1.37326936  -10.87081120
    1   -2.70981898   -3.34868940   -8.12683596     -1.59789655   29.57638077  -12.47539976     -1.95407429   -5.70327151   -2.82331325
    8    7.60786489   -4.28082832   -3.21234227    -21.90798174  -56.87010606   29.72070904      0.31996515    3.26014005    6.35621320
    1    7.12292315   -3.84391482   -3.93162588     -6.88237308    7.02805028   -4.93398411     -8.58116398   17.62695551    8.34679424
    1    7.09227094   -5.14665814   -3.04434202     27.08550481   46.58009852  -10.18897437    -10.69772126   20.54977758   -3.57557886
    8   -3.37083144    7.74196078   -6.14225392     -3.61374656  -23.38642094   15.93658165     -1.65880665   -2.02820123   -1.01264158
    1   -4.24462569    8.07549906   -6.34390956    -25.43894183    0.36075983    9.61678535     -2.81229582   18.63351644  -20.88809200
    1   -2.87323022    8.24095470   -6.74892616     33.29794788   20.08112042  -24.26829341     -5.09077733    6.40000198  -24.47293001
    8    7.93353695    5.31682920   -2.81701812    -39.56261082   -9.60545573  -16.97266492      5.26773086    3.17701213    6.74958575
    1    7.03628068    5.21563104   -2.38223446     22.42200533    3.31730226  -14.12742138     25.15101574   -7.58861530    5.43458284
    1    8.45936150    5.46217757   -2.05269830     31.31254753    7.10952191   17.57187795      5.34400639    8.08977254   -6.10758823
    8    5.90901769   -1.35118141   -1.21953434     39.58230914  -11.17297804   10.84156307     -3.89874006   -3.21620845    0.37671789
    1    6.46609818   -1.13021553   -1.95796831     -5.32444364   21.21003299  -31.01437207     -3.36869207  -10.48772943    2.54963716
    1    6.60328735   -1.83479108   -0.73989062    -17.22303314   -4.00267799   20.85157368     15.12755373  -13.12787917   19.46391748
    8    1.55228241    2.86234907    9.94301284     56.43474414   -8.98823196  -71.92704302     -3.84793813    0.55919967    1.90741212
    1    0.69994192    2.47638294    9.84539422    -32.29404331   -7.20473303   16.39680679     -1.58607714    1.50999805   18.83996130
    1    1.96393455    2.56207934    9.05428465    -13.19543614   20.23965294   51.92484545    -17.05439268   -1.13600042   11.11433013
    8    2.04008823    6.83099201   -5.09444270     -0.33959323  -45.78914435   -5.72750014      5.72413454    5.81261467   -6.40200011
    1    2.21804620    7.74685229   -5.12212397      4.11562518   49.50219976   -3.37606765      5.65940699    1.83108387   44.30274651
    1    2.56323185    6.57361338   -4.32247520     -1.27095935   -8.29960487    7.89296375    -41.70581116  -26.46622346   10.49266853
    8   -3.35577118    3.44142137    5.93632596    -29.04507444   -4.59255486  -17.04471868      1.37666137   -1.11325483    8.39446272
    1   -3.53361241    3.45802188    6.87738222     11.88360290   -1.34569104   23.94350972    -12.59763087   15.33902469    0.99461148
    1   -4.17531690    2.99796890    5.63304658      7.03795462   -2.16703470   -8.45498408     -4.46648117   11.67943426   13.86418183
    8    4.87298832   -7.48017612   -5.95376894     25.65209348    3.24681591   -0.56560187     -0.10608459   -1.40173409   -2.94308226
    1    5.84649849   -7.20979449   -6.10703258    -47.21221541   -8.10538477   -4.74011805     11.49965568   20.06293253  -28.54689368
    1    4.44652191   -7.52132058   -6.86422413     18.79371247    9.60358109   16.39980830    -14.00724214   -2.03939691    6.36298009
    8   -5.88198915    2.45261978    5.10095286     37.27953829   16.78386336   -8.80178018      3.69805021   -0.10977350   -1.35179133
    1   -6.14432045    2.42639865    4.17501445      1.57451288   -1.02286457   -8.14636873    -27.25762163  -10.81484618  -23.86839071
    1   -6.65029739    2.15078317    5.52733142    -31.66062420  -13.02661708   16.00852539      8.46115024    2.38082987  -12.66326079
    8   -5.18528139   -8.20684989    7.62577647     -4.03081454   16.25498008  -27.02275814      3.95698342    8.03920316   -2.44121484
    1   -5.31719217   -9.12329502    7.92393429      1.35866803   -7.48252271   11.79675208     14.60136284   -0.57391360   14.55305208
    1   -5.69263613   -8.22891828    6.78637317      4.52388623    0.24183768    7.64764852    -16.18809074   10.98644513   21.87306906
    8   -4.60495961   -0.36487980    1.98936412     -0.10156071   18.99880588    7.87037632      6.19052893   -4.57699919    1.47772830
    1   -5.40042624   -0.86844264    2.22851391      2.36064358   -1.95489747   10.00260319      4.14627242  -10.78523272    7.41239953
    1   -4.38539298   -0.76657642    1.15650940      4.16810174  -11.79234685  -16.00405398      0.65048941  -19.56897986   34.82794724
    8   -7.95676906    0.28444674   -5.07941776    -22.85474704    2.01218775  -15.95620105      0.60676048    2.86342355   -0.22151817
    1   -7.98897142   -0.26042811   -5.88853486      6.90677786    2.10900915    3.76054310    -19.00756134  -12.08295942   35.61537051
    1   -8.78587033    0.81879617   -5.19516598     22.14434125   -3.88232633   17.78859956     19.03137183   -8.59537927  -18.76002569
    8    5.23365856   -0.11322186    1.48556307      7.69048954   -8.70373624   -5.49539505      4.22808655   -2.15278384   -4.65024531
    1    5.81368805   -0.28330939    0.73074340     -3.78252034    7.71778669    0.76742719    -14.49271930  -17.08542329  -36.90531816
    1    4.82313498   -0.98162442    1.59006159     -9.88995032    0.41270534    2.70775133    -16.53762281   -4.83832897   12.13171553
    8   -9.89737916   -0.34610788    0.29491144    -16.29156102    7.32542225  -12.22372365     -1.86265917   -0.98616898   -1.76210518
    1   10.24895266    0.36986796   -0.00776072     26.94952995  -21.40151582   13.86716018     15.46408149   19.03865744  -39.83331376
    1   -9.41674474    0.00162946    1.06928710     -6.04515375    7.75674110   -6.64533870    -30.44330990    0.33505682    6.25499771
    8    4.15877841    3.99216875    3.93057593     54.02759352   39.28816857   25.89626564     11.37010320    3.33170116   -1.83104842
    1    3.71753474    3.20537147    4.02247218    -35.56805931  -55.52326315    1.15252858    -11.91754645  -34.23108623    6.21213954
    1    3.72295669    4.41041744    3.19837169    -18.65173220    6.43945106  -16.00448086     12.10589016  -17.99791371   -9.22954784
    8   -9.08749958    5.60909272    7.51274576     12.14863441   15.37821794  -41.88635193     -1.70731845    6.52637092    6.66026627
    1   -9.59872162    6.35055778    7.85153284    -15.56855454    5.12165244   15.41197809     32.25703152  -16.86272287  -29.05927556
    1   -8.97530485    5.95697486    6.58941776     -3.35955106  -21.91106508   22.19537457     23.37829333   19.37278727  -19.42427701
    8   -7.17657706    2.41468098   -2.84177198     30.72839107  -34.21332913  -13.60479995     -5.84764415    2.85607685    1.93177848
    1   -7.63730963    1.94020918   -3.55591841      6.86389176   -2.43359140    1.06680809    -14.92724466   -0.12855342  -14.51461215
    1   -7.78947595    3.04960018   -2.59979423    -32.27218474   34.79693442   14.55203991    -15.32287346  -16.02095908  -15.44717379
    8   10.15431357   -1.92437139   -6.26681518    -42.57221368  -11.42184413   28.70883138     -0.02744662   -1.33614821   -3.89819249
    1    9.35286957   -1.36938598   -6.27317826      1.38213035   -1.49390665    0.72201541     -1.58737009   15.67837815   10.95829326
    1  -10.11422449   -1.51648358   -6.90936463     35.30574564   16.12827782  -35.56007176     -5.04051599    0.19765455   -7.29682420
    8   -9.63872931    6.50843973    4.84368631     -4.45796731    0.35033794    3.97225217     -3.12654572   -2.39049138    3.97531899
    1   -9.77967738    6.74288086    3.90310452      7.57740112   -5.46582745    5.03018180      6.65133173    5.74157110  -28.21236373
    1   -8.77783919    6.06769322    4.83840234      5.47966655   -2.25915895  -12.87149129     26.72610002   28.27702494    2.70276731
    8    3.57502094   -5.87534630    0.36307452      1.53577578  -27.99943032  -51.47914720      1.74347736   -3.57489378   -3.59161132
    1    4.02136755   -5.41939784    1.09025818    -12.57381048    6.23606043   23.05978996     -9.72201855  -12.14822183   -8.78796423
    1    2.65514137   -6.02565194    0.59921736      4.14832812   10.25281993   22.20834458    -23.56837453  -13.39660888   -1.50391312
    8    8.70198481   10.22494569   -2.25544024     85.36565039  -25.12740091   46.36671044     -0.56976526   -1.78680620    3.81894497
    1    9.43638011  -10.36580189   -1.55013373    -49.20968320   -9.19016687  -49.52544239     -1.74229766    3.28548226   -5.20316114
    1    8.11266356   -9.84485407   -2.12629682    -26.55566488   29.26884585    5.99393762     10.73515550    3.68532182   -7.24709522
    8   -5.34735632   -0.49276552   -1.33254413     25.11618929   12.52792295  -58.13374838     -6.19850575   -2.27006617   -2.37931553
    1   -5.41356815   -0.64309674   -2.34033414     -4.87501767   -1.18455447   56.54793198      0.01670681   -8.35960175    6.18815594
    1   -6.00454796   -1.07902610   -0.96891668    -18.85811674  -13.22092245   -1.39440292     -2.94720233   13.91272838    2.68753464
    8    3.50997120   -7.57237231    5.04529932      1.50863762   -6.90758261   10.73600203      3.42859474   -2.82604266   -4.38071717
    1    3.66471588   -6.63574642    4.90504530     -1.01936879   16.53249342    4.43263543     -1.59602705   19.99715191  -17.35279863
    1    3.51020733   -7.90310248    4.15124966     -0.95976729   -7.74402232  -22.87206819     38.68575106   -6.81534735   11.58616812
    8    1.71895339    1.55491350    4.73086909     41.94160129  -14.53430786   -5.17512901      6.15786114    3.69165952   -2.46125558
    1    2.10310027    1.22226882    3.87374409     -4.06002019    2.49116515   18.64850010    -17.02697514  -18.98024984  -18.63124266
    1    0.90619571    1.90802714    4.43751728    -37.05786223   13.84914079   -0.17024717     14.95723054   28.59861449    6.02549353
    8   -4.04864704    3.29551666    8.61984142     -3.06101349  -36.75849021   30.54111934     -0.81345546    1.87412053   -1.65804155
    1   -4.09503201    4.20906680    8.72208026     -2.02840962   48.46671103   -9.38550535    -14.16624817    2.90441961    6.03936886
    1   -4.14289111    3.03791145    9.57323836      6.15943743  -13.09571920  -20.33047665      1.25502737   16.12108771   29.92623220
    8   -1.62912207    5.46276472   -1.29327716     13.09385543  -23.64884828   10.38722788     -0.33335242   -0.08786606    1.54539777
    1   -2.57060276    5.45884087   -1.25387938    -27.57147173   -6.17709804    4.44439804    -29.19508360   45.17954718   -7.82283636
    1   -1.46830766    6.29791203   -1.69363070     13.14705269   27.11641778  -13.58691642     12.01334270    5.81642893    5.30703231
    8   -2.14442180   -3.96513090   -0.52955353     -4.67654133   18.63888153  -14.34498731      1.17940195   -4.95009450    3.86254927
    1   -2.64897020   -4.36676358   -1.26869636     10.03306614   14.34009034   11.12415442     23.46250727   -8.43489685   25.71186960
    1   -2.02832318   -3.00749565   -0.81433151     -5.55922612  -39.36315501    0.27756330     23.50664412   10.26386941    5.42105633
    8   -0.45120609    3.82940082    7.39781133     12.10071327   49.95021788   17.27980858     -4.27063640   -0.46514101   -0.04816055
    1   -0.17828933    4.78513881    7.52572903     -8.66197981  -40.20135489   -0.46164238      6.11686750   10.24218986  -23.01241266
    1   -0.33833129    3.74084183    6.45928337     -3.28331812  -14.78885037  -16.35546421     30.82677288  -23.22442364  -42.74112153
    8    7.10063661   -8.75596134   -0.88232677     55.94958025   -5.14139159  -35.48127932     -0.69212648   -0.34674298    2.11067472
    1    6.25686019   -8.66610986   -0.47300386    -24.46581478   10.03037851   32.91843669      5.97989713   -1.31645949   22.47424781
    1    7.78907163   -8.32208537   -0.29972050    -33.80940221   -3.77993905    2.64548841    -12.02116914   -3.98014046   15.99084339
    8    9.99360273    7.59236039    7.88171070      4.08709865   37.71656062   22.34705645     -1.76027751    7.97102820   -7.50246794
    1    9.98298692    8.55048546    8.14151391      6.51679961  -20.48633538   -7.63220486      8.42444012   14.85301741   21.13536485
    1    9.20691426    7.54307222    7.32612957    -10.58105775   -8.63682170  -10.18115123     -7.91034336    1.04820609    8.02474260
    8    0.93616674   -1.33307080    5.32509577     27.62027456   30.98493275   23.13940934      2.96401120    0.22905223    5.22363168
    1    0.10526573   -1.45028747    5.74882340    -34.43031230  -13.44300587    3.68544160     -3.26924943   17.16783466   -2.53563805
    1    1.24590463   -0.54720439    5.83741639      4.69474408  -18.72340251  -28.09884298     11.80563695   15.00834078   -0.82689942
    8    2.03665352   -9.58196346   -9.68929040    -12.11916711   31.11413023    9.21904003     -3.37833976    3.58585265   -6.14959813
    1    1.21525604   -9.07223269   -9.78018809     -6.74407309  -12.38899712   -7.52615377      5.05294363   11.17676332   35.36914988
    1    2.54215681   -8.95003007   -9.16012644     14.90515589   -8.03576095    1.76150769    -15.07386159    4.71082858   13.32399235
    8   -2.85869030    8.93109234    2.17890251      6.96954711    3.66891960   29.22856001     -3.41673326   -2.30986126   -2.13472877
    1   -2.23851709    8.18313331    2.08546345     -6.07193538    4.24693993    4.47468890      4.33195933  -20.84337906  -19.24712486
    1   -2.75284248    9.19399948    3.14022710     -1.56238953  -12.11948817  -29.71092379     24.05842482    3.18857670   13.42541026
    8   -9.79570941   -2.49182036    2.62602954    -12.43017491  -26.05067700    9.13922085      0.88799279    2.33609105   -5.83304858
    1   -9.56640332   -1.60897275    2.37133124      7.99640212   15.72050360   -7.99357908     -1.45450354    6.68619200    4.91132638
    1   -9.21929770   -3.05473226    2.08917963      1.83520700    3.83054816    1.51059735     15.87675389   -0.20467890   21.79491537
    8   -6.06906543    8.40827428   -3.91356653     -9.23387154    6.87454971  -11.22367046     -1.82495353   -6.28642392    2.48732288
    1   -6.11259208    8.62243339   -4.86499411      7.92891267  -12.82015055   -1.28290950    -32.79487274   10.17099523    4.39488348
    1   -6.19816455    9.29520365   -3.53666080      5.03130100    4.14081679   14.57747420      9.87250237   11.25732475    2.13351822
    8    3.29875667   -8.78111420   -3.88242511      1.67256744   -9.89924478    7.80273654     -3.58904719   -3.12945717   -2.32552801
    1    3.68665224   -8.21454154   -4.57161024     -6.70467748    4.11296833    2.06339148     -8.68833104    2.05488621    0.16253284
    1    2.39464385   -8.44126610   -3.73039268      7.20595355    4.27275292   -8.80712859     -0.54919116   33.10949533    0.90728595
    8    8.13250503    0.27489070   -6.12587602    -23.30759400  -44.26647020  -35.94151477     -2.54884742   -1.55132505    3.87761445
    1    8.30369718    1.17445420   -5.92415278     -0.96640936   30.44126025   -1.48684636     -2.82362554   10.67034069   -8.09390735
    1    7.47666915    0.28833260   -6.90992353     27.24821862   10.41995852   40.05230782     -7.61127454  -15.88997492    0.36087109
    8   -0.83289578    0.40508466   -1.09263942     54.14001205   11.69120819   22.44052452      4.83778457    5.97896529   -5.51974917
    1   -1.00975340    0.71037628   -0.18870830     -6.76710423   -3.13318920   -4.17423704     13.57184862    1.10486081  -22.14164021
    1    0.17593917    0.33399644   -1.05252704    -39.82645505   -0.31495643  -14.43262605      6.35773743   -3.66603369   -1.86468199
    8   -6.32374847   -9.22489937   -5.73060729      2.35235209   -0.38011666   -2.54944933      4.16142389  -11.37550946    0.45204642
    1   -6.91588740   -9.25355922   -4.96861106      0.56454254    1.06274190   -2.07466755     12.31410809   27.40238042   10.19904423
    1   -6.91726332   -9.32362754   -6.49365391     -6.85511772    3.63504503   -0.47857245      8.03023354   25.99962431    9.26173887
    8   -3.71770636   -2.05675928    7.35004889     -6.39764191   -9.04529602   -5.11951876      0.23899448   -7.20179225    3.33441991
    1   -4.07695560   -1.25684338    7.72816813    -16.86931619    8.56740501   14.97672584      6.43632947   15.30712546   25.44116801
    1   -2.97417281   -1.68373882    6.86677104     18.39444941    2.43941247  -10.77674687     14.87543835   12.95800992   17.00168540
    8   -9.95964715    3.49173425   -0.79882645     37.61170651   34.15988594   12.02503907      3.09784010   -2.42064634   -3.71310451