 BEGIN_INFO
   #
   # This is a XCRYSDEN-Structure-File
   #
   # aimed for Visualization of geometry
   #
   # Launch as: xcrysden --xsf HICOLM.XSF
   #
   #
 END_INFO
 # estrutura final
CRYSTAL
PRIMVEC
      22.15306276       0.00000000       0.00000000
       0.00000000      22.15306276       0.00000000
       0.00000000       0.00000000      22.15306276
PRIMCOORD
  927    1
    8    2.45882655   -8.82125304   -8.69601307  -2551.25274311-8031.72621063 2498.75756302      3.25842311    1.77686248    4.62359136
    1    2.54024553   -9.63802569   -9.17981584   2423.60212069 2731.81253674-4219.97336418     26.13516443   27.45413209   -2.37994460
    1    2.03749960   -9.07654467   -7.88001609    124.84878895 5296.39032742 1723.94982350     16.26762082   38.46389892   23.13490060
    8   -4.00715582   -9.71854398   -6.79088649  ****************************-2695.88211472     -6.63116703  -48.99339445    3.22236461
    1   -3.55707659   10.44542892   -6.70334827  84094.6760836720755.2089150611158.39796038    370.26509863  104.30329436   62.77976246
    1   -4.92343551   -9.94886949   -6.91242569  ****************************-8456.30299190   -170.88271674  767.51517300  -19.76729794
    8   -5.33123971   -2.94911129   10.13517922   7829.47427480 1784.18971108-4965.81223108      6.03022537    4.42269372    2.62761184
    1   -4.51639711   -2.56161981   10.44368088  -2300.33212133  465.76774995 5515.77477872      6.02271048   17.69879605   39.01810331
    1   -5.17315367   -3.11300683    9.20991890  -5532.15729129-2247.33462927 -551.74942117     -7.62036622    6.24504417   13.40229722
    8    2.08259971    5.98063732   -6.87411782  -5232.57926497-6755.65578026 -223.77675518      2.52424938    2.11012687    3.88737548
    1    2.31546909    5.05664431   -6.88413628   5255.77590647 1317.63417571  126.11567260     38.43830200   21.42097190   16.27746517
    1    1.12992409    5.97962287   -6.89283210    -17.20853681 5426.75000166   85.97179253     15.65520992   39.17457517   16.10433752
    8    5.76034322   -0.69735256   -5.89747644   5436.28068296 1482.91659675**************      5.36822866    4.37165742    0.09425864
    1    5.19593135    0.00063215   -5.57647378  -2318.69870675-3728.29571141 4225.66095845      5.95601440    0.00991431   33.54740028
    1    6.24876510   -0.29099080   -6.60799488   2906.45000304-5178.40621392 -963.69380633     27.99070236   -6.10493075   11.66826889
    8    2.88762958    5.24834716    7.50500370  -6238.64108430  844.76532903 6832.52462689      2.28287234    4.17366687    5.77194008
    1    2.17280473    4.65716749    7.72274959   1568.24204823-3542.16871481-4452.42598421     22.37656421    0.72195453   -3.13313694
    1    2.81478202    5.94661435    8.15019444   4673.58336799 2697.64639479-2381.87489178     35.53683087   27.16474403    5.64070699
    8    4.17564552    8.76446559   -3.53388483   6222.80662130 -834.25585868 7573.50751877      5.58866959    3.72813920    5.94483196
    1    4.15004063    9.22490905   -2.69932270  -5147.41573198 3029.65976735-1821.28227260     -5.80839402   28.41190321    8.11014454
    1    4.94445687    8.20515658   -3.46518992  -1081.40991573-2192.16947160-5746.48405278     11.20732679    6.55946598   -8.31571659
    8    6.60941826   -0.00021579    9.16486270  ******************************************    623.20855665   -3.76221926  196.25590035
    1    7.08469866    0.23886304    8.37597856   -670.30961173-1028.35131025 -794.87544013      9.92605743    6.97286929    9.23147426
    1    6.93163765    0.60091134    9.82607574   -892.19967450 -602.93518674 1019.91414222      8.21619881   10.59892421   24.22212291
    8   -5.36908788   -9.30837699   -2.42392084  -3082.04384829 4668.50387517-6971.02094343      3.11812262    5.20534103    2.07093713
    1   -4.91668334   -9.09791941   -3.23597410   4592.31382866-2776.26622129 1830.33441591     35.36687001    3.86408278   23.55579242
    1   -6.22689849   -8.90601261   -2.52603688  -1504.25616115-1887.79243751 5138.85348103      9.29945900    7.66345819   37.70117924
    8   -9.75884316   -0.40783207   -1.44185025  ******************************************    -44.97124713   -8.18489824   -3.45106764
    1   -9.95653113   -1.33967724   -1.43286497  ****************************28698.82783045    710.91875108 -132.61176035  136.81476001
    1   10.44819771    0.00375512   -1.77443096  18261.6136587580152.10123932 -571.72728727     93.62657525  353.68348737   13.50470587
    8    0.75948294   -8.90669167    6.35979269  ******************************************    193.54340883  125.00093967   85.62829326
    1    0.38432063   -9.89274784    6.62505928  38568.79206990**************-7691.57895820    180.24439078  -54.72440076  -16.93150292
    1    1.47687586   -8.96795527    6.17626553  -2247.47735219**************10816.52289279      6.59276218 -246.19329490   61.86445617
    8   -4.45285654    7.83422478    0.42544631  ****************************89881.21816615    -66.18230109   -4.70073693   27.55011518
    1   -4.64123259    7.00291702    0.00007138   4648.97731586 -785.72691325 -504.41850484     36.82781544   12.15494643   13.43893150
    1   -5.31211612    8.19235053    0.62665166   2043.59801858 3816.90015413 1914.99126339     25.00022866   33.05506580   24.42737017
    8    2.42197415   -5.76565815    4.23116133  -1297.39211095 2833.69944625-8291.33921702      3.59786488    4.71252285    1.71081347
    1    1.71231209   -5.22121628    3.90227429  -2218.16021130  237.29063782 5163.66281497      6.22969407   16.75289319   37.85185601
    1    2.95691855   -5.93831697    3.46157076   3523.08444552-3065.03267200 3130.55983885     30.82761084    2.60363810   29.14126153
    8   -4.14007683    8.79605185   -9.41144829  -6631.68939480 5352.09817534-2887.14796640      2.16522806    5.38688338    3.17186458
    1   -4.86603656    9.15507588   -8.90882614   1938.96072359-2625.34524606 4680.55965960     24.00698893    4.52974715   35.71192216
    1   -4.27878475    9.13385655  -10.29164524   4691.14078677-2722.43171218-1794.90968729     35.75418251    4.11534818    8.06980024
    8   -1.36377719   -9.02400148    8.89333393   4833.44710968 8442.49487786-1069.77253294      5.22330914    6.17547199    3.66581621
    1   -0.43235412   -8.89550253    8.73553721    865.51118423-6150.26894788   52.32432850     19.35715269  -10.02416598   15.95314385
    1   -1.71718008   -8.13908280    8.92153122  -5694.08753790-2289.50905867 1013.20940518     -8.11332090    6.14404410   19.97675527
    8    4.19182193    3.42536828   -2.80634476   -686.88853296-4560.93388052 8146.63495009      3.76513675    2.73286974    6.11893069
    1    3.73953852    2.60567669   -2.62908002  -1656.78183712 -325.38279640-5697.27400852      8.72416175   14.35498872   -8.36614817
    1    4.55836692    3.67434333   -1.96200199   2333.20446516 4882.26170529-2447.45660737     25.60315891   36.38506547    5.38083203
    8    3.04618135    3.39423181   -8.94949632   3750.66847093-8186.27850928  304.29710925      4.95639773    1.74743803    4.02993504
    1    3.77301924    3.10113579   -8.40653936    386.50507066 5218.68629303 2300.78641863     17.38448955   38.00423299   25.55383313
    1    2.80761735    2.62157128   -9.45321137  -4137.96308707 2966.63972879-2606.66154182     -1.92727791   28.39164302    4.60726892
    8    8.54558032   -6.09819826   -4.57674625  -2750.53419006 9144.47058298  345.38432572      3.21831617    6.37439553    4.03974517
    1    7.65757286   -5.75420656   -4.54057916  -2197.83447329-5651.87104409  -94.78188356      6.47518374   -8.07156461   15.33393854
    1    9.09539810   -5.31918601   -4.57135383   4949.17341251-3488.77724428 -248.56252942     36.57910075    1.03877228   14.68601952
    8   -9.31863468    5.10337018   10.32849527  ************** 5706.11643235**************     -8.38635647    5.46261255   44.76872129
    1  -10.25912475    5.19360186   10.45148302  **************  579.64686614**************    -63.03955467   18.18510539 -578.29616960
    1   -8.96260523    5.08649717   -9.78695516  65118.98529615-6293.34296662**************    290.30123545  -10.79084015  -38.21269625
    8    0.07986856   -2.79802834    7.95001331   9948.9201358826180.60885101**************      6.57059639   10.81678295    0.55048688
    1    1.01651451   -2.96605278    8.00821447  -1154.87695217-6042.15130414  970.45103002     10.88861627   -9.61522627   19.80421781
    1    0.02319110   -1.85952254    7.79271237  -6184.56738750 -409.12999929 -129.94710237    -10.21346645   14.01707554   15.18804554
    8    8.66002877   -0.01041010   -6.23958791   5942.52760170 7860.24191011 -645.85066903      5.51435833    6.01957697    3.77816085
    1    9.60949115   -0.00382283   -6.32573454     52.13603876-6242.90989493  -34.98929002     15.95040796  -10.38443461   15.58678213
    1    8.42442093    0.91298347   -6.21338712  -6037.31585835-1537.52630427  538.84538894     -9.52383349    9.29988314   17.98748064
    8    7.26068113    7.23379038    4.47002120   7259.45163807 5098.13548576 4650.38752710      5.85471645    5.28709603    5.16948871
    1    7.31786389    8.17483064    4.61236640  -5543.20423591  798.48794248-2997.45885967     -7.37665648   19.06057530    3.23665485
    1    8.05477696    6.89129724    4.87131760  -1703.78350038-5890.37826808-1641.63955020      8.62878684   -8.82340208    8.88844655
    8    3.73996920    9.49213705    0.19332653   3019.3192447429192.9542350611929.41285559      4.66447531   11.57391436    7.06884109
    1    3.01784968   10.08326517    0.00002668   3592.54981268 4158.18844836 -689.53740348     31.15498852   33.58789837   12.77188091
    1    3.31624469    8.65391094    0.35414026   4940.71610148-2387.29960495  816.32438519     36.94489601    5.48751284   19.25325347
    8   -0.64372850    8.58783755   -1.71078554   -128.58342479 4409.9373979110774.85598233      3.91988179    5.10690570    6.77179531
    1    0.00098504    8.30968484   -1.06580927  -1751.96443910-6071.79398024 -881.41599083      8.43241850   -9.56635074   12.05949080
    1   -0.54482267    9.53562108   -1.74162795  -4590.63743098  338.02456136-4407.16063534     -3.39503630   17.13918361   -2.63055705
    8    3.47561485   -0.00099231   10.25617251   2564.24895698 4858.03494616-5684.38853655      4.63555826    5.24206500    2.38891883
    1    4.23488526    0.54192261   10.45157774     -9.54869803-1593.58981434 4650.09776255     15.68877047    9.01101380   35.34219439
    1    3.30009027    0.16803067    9.33635210  -3786.30854424-3095.35135371   89.78969251     -0.23513727    2.67966547   16.11534015
    8    3.62762033   -9.57607496    9.09041078    888.47279684 2553.47483432-8535.68156300      4.18744766    4.63544576    1.65049665
    1    4.40775046   -9.23973892    8.65783928   2916.27513102 -489.29498872 4856.03984905     28.19583744   13.64354146   36.48382554
    1    2.96593757   -9.57842441    8.40491448  -3805.22556841-2063.59136142 3677.34084647     -0.53099750    6.91463383   31.44534481
    8    5.57144350    0.01418762    8.84131873  **************18260.85327073**************   -612.27064294    9.57007004 -188.90477202
    1    5.33691588   -0.90506092    8.77422842  -9995.32895880 2579.09561023 -328.61144053    -20.69292524   25.21034241   14.57638721
    1    6.53036198    0.00072926    8.88836491    413.7348641410172.21299317 1991.70584290     17.38744096   52.90646460   23.77677806
    8   -1.24018233    4.17241858   -6.95109399   3807.91392623-6070.92774394-4895.63572582      4.97870761    2.30834624    2.62981681
    1   -0.30377914    4.08584922   -7.10762617    929.88081263 4673.87151415 2999.84369954     19.71907345   35.75196270   28.57785444
    1   -1.62022338    3.42415518   -7.40196081  -5142.14137200 1629.25675073 1629.08059249     -6.29182384   22.70812792   22.70733545
    8    5.40361008   -8.57762255   -2.83477420   6031.51440210-1991.26017318 7408.30886771      5.54064841    3.42235327    5.90416954
    1    5.90534742   -7.96472985   -2.30375077  -2303.56471006 4728.39609841-3266.65987437      6.07775941   35.55045752    2.04102549
    1    5.62653463   -9.43126073   -2.47432210  -3725.18561276-2728.53890784-4139.90695748      0.11990680    4.29723081   -1.61816146
    8   -9.16793141    2.26959792   -0.00313470  **************************** 8753.33389525    113.80239256  324.37225795    6.29637022
    1   -9.88098408    1.63304278    0.00086531  -5706.65462140 6303.30612296  -43.85496066     -5.30159241   38.94251712   15.56066978
    1   -8.38150282    1.72923755   -0.00189868   5716.85391642 7810.68040196  -71.74094006     37.17738211   44.87760478   15.45368581
    8   -2.46054112    5.57459884    0.87172643   2987.98518355  385.56302324 9561.29651894      4.73829480    4.04928387    6.46655987
    1   -1.56129723    5.33956530    1.08402908   1100.50291402-1306.91178511-6033.26333547     20.33564629   10.26502267   -9.50666726
    1   -2.83665997    5.82840461    1.71015647  -5470.89893444 1190.27188780-2806.16543237     -7.15400771   20.71201846    3.99300211
    8   -5.62290868    0.45412302    0.05052756   6816.59822584************** 6828.02626799      5.75126214   -1.90239330    5.76496869
    1   -4.75854268    0.05453472    0.00750093   1393.72182745 3494.77301470-4500.51450515     21.64939277   30.56348377   -3.36645541
    1   -6.05158983    0.00048708    0.77079959  -4835.42509561 3230.14358239 -803.10911832     -4.78750846   29.44062382   12.32380022
    8   -7.55542877    2.59591200   -4.02661197   3153.23485437 8312.28989968 4577.29699471      4.77703080    6.13336843    5.15142538
    1   -6.74367052    3.07491415   -4.17047949   1690.47944833-4200.56284043-4429.35450136     22.78679170   -1.79682125   -2.75057516
    1   -7.99907626    3.09356208   -3.34515420  -4825.53881944-4108.49858490 -144.85342256     -4.40363683   -1.41220484   15.12815870
    8   -7.03390605    3.68912260    6.09205559  -3746.42589413-2148.95163733-7324.77511929      2.92683099    3.36244459    1.95201367
    1   -7.88033487    3.97685295    5.76226782   -711.08784184 2995.55272695 4428.29857551     12.65261072   28.69704865   34.89183868
    1   -6.70732419    3.10506337    5.41368947   4469.14429376 -858.97647038 2879.32498571     35.07367080   12.01459330   28.18916454
    8    4.92329724    7.56481465    6.95764229   3305.45496235-6026.51657847-5457.93544609      4.84180686    2.31854299    2.47248729
    1    5.01635608    7.61819567    6.01079070  -2231.26025905 5101.89036496   62.56428531      6.15558232   37.63373025   15.99805942
    1    5.27116462    6.70488283    7.17630578  -1069.69677720  927.47611557 5393.05270590     11.14281348   19.71174502   38.88255811
    8   -6.04672919   -9.34045269    0.40377566   5321.21744291-5149.49728263-5030.40675125      5.38006899    2.56237068    2.59441058
    1   -5.21120443   -9.11031941    0.00657319   -390.02693002 5224.81260358 2197.22681666     14.06939954   38.05438444   25.11938752
    1   -6.18578075  -10.24585339    0.14172160  -4935.66250295  -73.13093720 2833.02757590     -5.35230014   15.41796615   27.83484474
    8   -4.28359462    0.23579685    6.04160526  33765.6207312749374.60873368**************     12.82646324   16.91128830   -6.51640809
    1   -3.45554664    0.00026148    5.63259935   -945.84009663-5692.29195448 1349.79506532     11.71606421   -8.45199882   21.46822671
    1   -4.33632884    1.18088940    5.92902061  -5222.33987282   55.58482860 2787.12235650     -6.45481676   15.96919023   27.57571854
    8   -0.78652374    0.70233530    5.55934445    850.43576267-8586.64532671-1181.34492838      4.17887748    1.62381080    3.62870013
    1   -0.86026075    0.20817868    4.74811263  -1074.58101869 4695.06267311-2763.60057488     11.11576828   35.90453942    3.85448937
    1   -0.59007363    0.04049822    6.21657298    163.53210421 3935.11798055 3927.76812581     16.43557580   32.63850015   32.61075484
    8    3.40321970    8.71187514    9.69005163   2406.96140903-5834.70537048-6011.56626516      4.60032759    2.36775805    2.31973786
    1    3.94315363    7.93555410    9.80923824    498.98072893 1171.93947890 5380.31886449     17.87987205   20.76899921   38.87113154
    1    3.19001645    8.70520644    8.76142647  -2917.48142368 4657.69456351  630.12647110      3.18524296   35.76267848   18.43905779
    8   -0.80501749    5.23890102    0.00029295   1743.25275436-9075.82379884 -708.55249404      4.40716881    1.49590583    3.76276828
    1   -1.53367549    4.62505491    0.00009438  -3611.18351151 4265.79079528  -13.39266919      0.22491494   34.04795183   15.67695163
    1   -0.03221847    4.68090695    0.00096607   3259.23268884 4508.52535888    2.97720916     29.73240842   35.09259325   15.74544849
    8    5.31222107   -0.00744176    5.62246711    831.08323382  156.69557991 9735.22426145      4.16767512    3.98944378    6.52055812
    1    4.61189615   -0.00219700    6.26896702  -4196.58786061  -92.34400620-4526.26564119     -1.87039466   15.34628999   -3.25354001
    1    6.10932661    0.00325017    6.14562663   3399.64532874  -65.19872302-5165.33549384     29.99305830   15.46021216   -5.93404801
    8   -1.03011409   -6.31117334    4.66154582  -8409.47430678 2048.36510138-1756.91262702      1.67518919    4.50195747    3.47346407
    1   -1.49697777   -5.51178054    4.88910825   4610.04120041 2001.38431584 2440.97865213     35.51509843   24.32469098   26.20822200
    1   -1.67985461   -6.83616838    4.20350813   3773.14523049-4055.09203684 -703.38227778     31.92231001   -1.67261306   12.71231334
    8    3.93010817   -8.99366609    4.52060440   9077.36963776 3761.17585631  584.35349235      6.34020080    4.93926011    4.10209606
    1    4.76195417   -9.45274860    4.44374848  -3048.44533726-5393.82936914 -855.61857024      2.98067477   -6.82891308   12.15355294
    1    4.18058802   -8.08527072    4.66637498  -6035.92150917 1629.29162760  282.94495613     -9.51564123   22.54752562   16.91648327
    8   -0.42913497   -2.84691711   -7.69359288  -5068.14906584 8418.87422452  486.05961193      2.60484203    6.18764835    4.07580116
    1    0.00062162   -1.99597189   -7.67399996   5348.62315508-2661.29557651    2.37550006     38.31411191    4.49549910   15.74285916
    1   -1.35845533   -2.63617361   -7.69812122  -1339.46248496-5851.50410337 -118.88191769     10.07748674   -8.96987682   15.23114502
    8  -10.21483709    2.88380000   -8.23424073  **************11263.9192245325196.08634741    -70.96345362    6.97480640   10.82644798
    1   10.25489379    2.22147129   -7.78842053  ******************************************    633.77269107-1227.05738125  451.07927568
    1   10.20656577    3.63785181   -8.35559935  ******************************************    586.80833678 1210.53447314 -528.94296955
    8   -9.05667102    0.58023299    2.40347392     -0.04666409-8708.44621554 -663.86828316      3.94812589    1.58951394    3.76810158
    1   -9.80936473   -0.00305236    2.37246368  -3398.92916092 4355.23796479  411.44118611      1.11211635   34.45893687   17.50257752
    1   -8.30717304   -0.00546712    2.34240663   3412.61163837 4338.25785180  279.25290845     30.41197178   34.38690914   16.93299766
    8   -4.71935385    5.42096035    7.56568578   7417.28161070-5285.85434147 2546.74875814      5.92067776    2.54241404    4.62526987
    1   -4.61697996    4.47730624    7.48198118  -5469.73124180 -383.82064858-2455.82405643     -7.35793182   14.11141989    5.36639131
    1   -3.90131237    5.70774887    7.96297516  -1937.95694341 5676.80706438  -88.53392011      7.55151325   39.69846100   15.36054240
    8    9.44284409   -3.39046235    5.76178604   4207.40087846 8890.71693700  460.25320866      5.05666779    6.29064500    4.06941346
    1    9.31807448   -2.65101261    5.17345736  -4030.47636044-3373.67269231-3398.44526144     -1.12353638    1.62264375    1.51992485
    1   10.06830949   -3.06960899    6.40612564   -175.65736514-5521.62191518 2930.77856162     14.99788948   -7.36085009   27.99002918
    8    7.79237106   -3.14226675    7.94695017  -7518.87526339-1580.52881628-3671.93369807      1.90049090    3.51774593    2.94781766
    1    7.35851443   -3.98326329    7.83642810   4122.53788386-2461.63796256 2482.64067125     33.55617050    5.08553996   26.46782691
    1    7.19257582   -2.51799143    7.54846430   3392.74779258 4036.24157932 1204.28396905     30.39910454   33.18765588   20.93955171
    8    3.56788691   -6.38787450   -6.61452120   8781.62389506-3038.17466142-1467.65175883      6.28450196    3.13984574    3.55756650
    1    4.38283956   -5.90596642   -6.50115481  -3086.58315616 4814.25595499 1751.03264801      2.69777342   36.06562798   23.12871589
    1    3.84806563   -7.24820849   -6.91337614  -5703.09737603-1778.57179572 -277.74799677     -8.35305758    8.22064185   14.56039506
    8    5.11526237    0.09779746   -4.66362038   -975.27474984 8134.6935734819776.92665807      3.70214205    6.07819085    9.14077525
    1    6.04708669    0.00043692   -4.48680072   1050.44698926-1056.90496701-6070.20702382     20.12945685   11.30942419   -9.67569592
    1    4.73556658    0.27664150   -3.80769968  -5712.39393726  365.02399512-2572.25227231     -8.17578104   17.26083647    4.96499332
    8    2.37042305    5.77985638    4.63569360   8856.26640122-3448.57041493  -85.57222952      6.30161653    3.03152949    3.92529302
    1    2.64706059    4.87893932    4.77721661  -5741.92238935-1649.19506468  774.45117374     -8.49028935    8.77463957   19.00094806
    1    3.18537107    6.25026505    4.48189755  -3083.10198177 5113.26239686 -677.29148399      2.72672643   37.30585460   12.87554622
    8   -6.27232198   -0.90340127   -3.16483075  -7830.18873578 3918.91478821 2661.98528250      1.85095564    4.99783062    4.66096544
    1   -7.13417587   -1.30344994   -3.09415349   2197.91554798-5084.97528808-1796.39955467     25.07633778   -5.88707708    8.09567336
    1   -6.41420347    0.00042695   -2.89652183   5643.35848740 1152.76371709 -854.42845054     39.72629740   20.63484462   12.10099131
    8    4.38308546   -2.57115053   -7.98832511   4338.39854764 8833.96684460  770.09351510      5.09081633    6.27499041    4.15094019
    1    3.98826002   -1.74604350   -7.71969677  -5525.97110338-2878.88286166  759.34058692     -7.37061968    3.69536459   18.90805121
    1    5.29197534   -2.34476859   -8.16624040   1185.82613552-5963.02078422-1537.11623170     20.69042702   -9.19892742    9.30683927
    8   -8.48494017   -8.80023755   -6.47399849  -1095.05361567 9408.14479685-1215.38893124      3.65770074    6.44342777    3.62570205
    1   -9.26137697   -8.33475776   -6.77168030  -2982.23340974-5267.85570531 -491.25721616      3.17669632   -6.44549029   13.66452875
    1   -7.84355260   -8.10986524   -6.32814092   4082.16350362-4145.13642531 1714.62863263     32.91978583   -1.71923069   22.95263044
    8   -2.75784345   -6.98248661   -2.43512171  -3783.79196922 7936.77602573 3850.81730684      2.94554913    6.05114202    4.96840802
    1   -2.31969490   -6.15875816   -2.23825022   5244.48140569-2274.65086841-2114.35186056     37.79184108    6.16516195    6.84016776
    1   -3.65904391   -6.83545131   -2.16231269  -1457.33363718-5663.92713459-1730.90885014      9.60281910   -8.08992524    8.45302875
    8    3.81333120   -5.95653866   -9.34043240  -7081.74946785 5594.72826741 2079.88024027      2.05590071    5.44302177    4.50394795
    1    2.88232051   -6.15839586   -9.35832892   1219.46420237-5474.78151552-1770.09582590     20.90301841   -7.48992830    8.22460252
    1    3.84719885   -5.04660900   -9.05756817   5862.87294943 -113.02752990 -320.72211421     40.60230297   15.25457451   14.37294614
    8    7.93448089   -0.00018698    0.68889180    776.98961785 5840.17393460-7497.56741070      4.15149698    5.50851766    1.93446217
    1    8.59166429    0.61959033    0.38396659   3088.59726256 -913.65692197 4761.94522206     28.89537556   11.83928947   36.02250436
    1    7.27854644   -0.00022560   -0.00211589  -3139.65499248-3836.17899345 2929.11224625      2.35712783   -0.61489268   28.21257748
    8    7.56301509  -10.14126755   -0.00691251  12240.27858481**************54690.00598585      7.40368500  -75.95199438   18.80610161
    1    8.42959418   10.45562366    0.07627980  ******************************************   1251.78444623  694.25391941 -455.26358426
    1    6.97110301   10.30092719    0.49821804  ****************************57315.00612224  -1271.14893294  542.22303463  250.65399217
    8    0.00717281    7.76370782    0.48228434   6942.25186670 3652.09963958-5298.84938102      5.79295756    4.91893214    2.53966052
    1   -0.00047835    8.58566083   -0.00040138  -5602.24678167 1103.80902245 1950.23637476     -7.90171950   20.38865408   23.95871583
    1    0.86951581    7.39895457    0.30351683  -1316.54608997-4774.23481294 3427.90759529     10.18035034   -4.40937210   30.19449903
    8   -7.49805487    5.59336687    8.02038606   5340.90440111  394.78551234 8299.18454135      5.35477180    4.05205933    6.13391798
    1   -7.21732098    4.86710306    8.57016583  -2869.79695861-4044.25064219-3861.52485551      3.73565520   -1.17422354   -0.41077036
    1   -7.14398381    6.36356350    8.45712713  -2488.93927528 3660.17265654-4442.10573466      5.32749057   31.03442912   -2.83865667
    8    7.85430352   -0.00980092    3.43750050   -849.24059338 9670.21034494 -484.50115973      3.72296160    6.50947401    3.81988733
    1    8.53839005    0.63890229    3.29493067   4154.65916174-4447.06171019 -354.76900795     33.20454019   -2.96786615   14.24108841
    1    7.05954262    0.50867076    3.52641941  -3256.28101702-5108.88518947  799.63615811      2.03991201   -5.75029947   19.09583367
    8   -5.94501215   -8.77211486    6.61223963   -689.65352336-8612.44266305 -766.51210462      3.76114610    1.61285669    3.74008652
    1   -5.62707367   -9.32289376    5.90264851   1983.84500705 4445.80223479-2580.04440208     24.27486346   34.86938065    4.62489630
    1   -6.35464035   -9.38549085    7.21574274  -1304.38863504 4157.83132713 3354.63241825     10.11738386   33.63027626   30.17727911
    8    0.00056509   -4.08011355    8.81196247  -6737.87387703**************17195.96578026      2.14617293   -1.58517432    8.49290600
    1   -0.15892141   -4.95321389    9.15873959   3839.15168262-2175.38405574-3671.01857297     32.09646107    6.45737316    0.08137733
    1   -0.57656995   -3.51930550    9.32300593   1871.70908850 4576.14337770-2945.88503502     23.70859533   35.24306536    3.17769944
    8   -9.22979675   -0.52527501    7.33880146   4252.39743500 8628.60662718  244.69313463      5.06961570    6.22357873    4.01151216
    1   -9.02622215   -0.00003709    6.56994664  -2465.98804284-4411.75322272-3715.28583019      5.41125282   -2.73175161    0.18457426
    1   -8.91058093   -0.00022258    8.06800419  -1873.84488309-4399.64122497 3995.16900000      7.88942669   -2.68182684   32.45389014
    8    8.70267122    4.18070673    0.00028540  ******************************************    455.98520757  229.09604450   71.36114496
    1    7.92738205    4.73930687    0.00630177    866.52736283 1749.15781961-7830.87314048     18.97981705   22.48518085  -14.59238378
    1    8.75928714    3.85938440    0.89587217   6627.71431509-4208.26508295-1917.66313824     41.32210475   -0.58349108    8.28249125
    8    7.58031515   -0.56158420   -1.60348857  ******************************************    -57.97678347 -169.72619765   -6.15334359
    1    8.07097636   -1.37688082   -1.57925045   2816.06263109 1699.41319070  541.87807127     30.52972131   24.66283645   18.58636397
    1    6.68207713   -0.83350569   -1.76111286   -991.55859684 3204.47764377   48.39440565     10.53023580   32.55116832   15.98877446
    8    0.77474614    0.01436002   -6.34536400   -235.79942823-8658.69214638 -975.06723022      3.88375691    1.60118264    3.68293748
    1    0.00587182   -0.54768699   -6.37129974  -3231.40386822 4375.73295902  755.42221557      1.81979370   34.56656983   18.98172150
    1    1.50506035   -0.58671347   -6.46294884   3547.70601798 4212.02139699  311.22007783     31.00241843   33.86014721   17.07411706
    8    3.95316014   -6.04748299    7.07375483   7888.10806683-2889.08618750 4813.52472918      6.03426031    3.18404452    5.22109601
    1    4.29473391   -6.93295254    7.16032952  -4636.40730515-2131.54417922-3434.98146504     -3.73090579    6.78443110    1.31305523
    1    4.56852028   -5.51324945    7.56901523  -3253.06191324 5022.03448379-1367.35419434      2.07592683   36.81634754    9.99254269
    8    0.09050683   -5.32135001   -0.45906394   6518.40384888-6457.61263104 1535.32641774      5.68771722    2.22476406    4.35788928
    1    1.00543398   -5.30752600   -0.72654516   -820.76804855 5267.91788617-2532.82201618     12.25738871   38.05094056    5.00168115
    1   -0.00251196   -6.14945117    0.00333488  -5697.84908536 1183.80023147 1001.50166166     -8.40653409   20.74713659   19.97640163
    8   -8.16606183    9.95068821   -8.02309842   1230.00839986-2794.47785800 9104.12916497      4.27422593    3.20715878    6.36162953
    1   -8.82717796    9.63770927   -7.41216262  -4282.55999766  701.68322061-4275.14503849     -2.29037413   18.68609065   -2.25756116
    1   -7.35553717    9.92016307   -7.52182217   3055.02139622 2109.67797347-4819.92384865     28.59006047   24.61177431   -4.55096711
    8    6.89839186   -1.62250808    0.64748578   8766.12906004 -331.60291060-3643.00015774      6.27950126    3.86068769    2.97603129
    1    7.62831725   -1.02142623    0.77066018  -3182.84396056 3142.05835412 4021.78581109      2.28557301   29.00294912   32.72252676
    1    7.21749786   -2.24338086   -0.00107899  -5212.00844614-2885.99269371  231.93687024     -6.28588447    3.53756829   16.71082616
    8   10.04462121    0.54166556  -10.05069059  38095.1986500070770.6431980166793.37756191     13.93884646   22.66487855   21.30580198