 BEGIN_INFO
   #
   # This is a XCRYSDEN-Structure-File
   #
   # aimed for Visualization of geometry
   #
   # Launch as: xcrysden --xsf HICOLM.XSF
   #
   #
 END_INFO
 # estrutura final
CRYSTAL
PRIMVEC
      20.71719986       0.00000000       0.00000000
       0.00000000      20.71719986       0.00000000
       0.00000000       0.00000000      20.71719986
PRIMCOORD
  927    1
    8    4.86089054    2.84075055    1.90860429     17.57924246  -29.02338162   63.26840887     -3.04830880    2.54515271    2.46085952
    1    5.13544846    2.78237566    2.93247201    -12.22781962    9.36689266  -66.94132340     14.27198569    4.69123958  -13.65163483
    1    4.71688253    3.78155501    1.82730282     -5.35095132   24.41263202    3.65604701     11.73041775   15.50046929  -22.22640920
    8    9.61441472    7.91566018    0.77068437    -10.66271672    0.56352962  -14.41853483     -0.15678959   -0.32338283   -2.76748042
    1    8.80045371    7.39044463    0.88068230     -8.22785257    1.64957926    3.94124324    -12.19630046    3.10784389   17.90588114
    1   10.20211465    7.27943589    1.22121653     16.19333693    1.84380685    6.83367909      0.14089366  -24.04287219   26.16506826
    8    9.91955520   10.20341779    7.32583443      7.96307855    0.66260591    3.31064769      0.52306347   -2.39508860    1.30092355
    1   10.00138821   -9.86006713    6.59820092      0.74648268   -3.68093732   -5.87337738     19.63366993    3.02712248  -31.58309772
    1    9.28078769  -10.01910526    7.90556731     -0.35900520   -5.98431249   -3.01882621     -5.42971083    6.51076338   18.26494592
    8   -1.14914780    6.83276675   -9.38631619    -17.12988343    0.64821593   11.89128253      1.14984227   -1.60862825    0.94198743
    1   -1.82876711    7.03393156   -8.65964523     19.95760656   -3.86211942  -16.29156065    -15.21951367   -7.31705933   -8.98038496
    1   -0.48403102    6.33506669   -8.87446567      1.18267958    0.55903229    0.06642932     -3.43745416   -6.87363235    0.52099908
    8   -9.04933878   -8.87170068  -10.07768298    -37.90617760   38.21206835   -4.03328646      1.97728635    1.37664633   -0.15733277
    1   -8.66115193   -8.19435162   10.00158635     -6.59805764  -20.58348446   15.55166039    -25.75347162  -28.16587339   15.76932349
    1  -10.00218117   -8.46782174   -9.91367182     48.83167282  -22.50784723  -10.21120669     20.77217464  -11.43638683  -17.46847059
    8    4.84369658   -1.51118897    7.27414075    -19.20038825    5.24315137   16.84836201     -1.54200089    3.46742895    4.71786468
    1    5.49587977   -0.81639635    7.15527612     12.00545864   15.74730436    1.40617085    -31.58046658   10.06326762   -8.02808994
    1    5.24187410   -2.22508485    6.80683890     13.93738182  -26.48226312  -13.91073325     -7.76669015   -6.63707083   -8.64898829
    8    3.06669064    9.77776044    7.28392893     14.32299875    7.46502554   30.23526610     -0.27140866   -3.60746435   -2.12302743
    1    2.29159064   10.00115201    6.77805988    -20.37815434    9.33228015  -15.31660973     11.22754608  -29.20297739    9.28622909
    1    2.94911787  -10.26190339    8.01984842      8.71176162  -17.33722013  -17.13959112     -0.55669987   28.64013047   13.56237265
    8    3.41056042    7.62619808   -5.48239249    -19.91937144  -13.51295967   13.73528727     -0.35224816    5.89539721   -1.18011024
    1    3.69312437    8.50746369   -5.24358590      8.90487588   18.49873167    1.87523997    -11.01908972   -5.80409594    5.28753810
    1    3.98755640    7.40651242   -6.22454028     11.28984411    1.11992632  -12.29568655     18.62557585  -13.30902947   21.54895626
    8   -2.68345942   -5.95283754    9.24591918     -2.09932409  -37.05736815  -18.67879366     -1.55217272    1.13940883    0.73090962
    1   -2.58398864   -5.13305963    9.66660988      3.21131783   42.54860736   20.50640621     -6.94839343   -3.47122076   14.55687944
    1   -1.92717009   -6.42530942    9.67223595     -0.87618037   -0.97052272   -3.36882913     -2.50832949  -17.58698569  -14.16020297
    8   -2.16286982    1.74079139   -7.25308814    -36.29503743   47.36910747   -3.68966919      4.31276626   -0.78095666   -0.81338295
    1   -2.54079119    2.63187278   -6.88729281     23.03096349  -42.13690893   -6.17061477      2.49766080   28.08281178   -6.41724199
    1   -2.69171863    1.74024518   -8.09123183     10.16423080    0.22507961    2.28292509    -12.43430533  -23.64595674   -6.94867177
    8    1.61513152    5.23570627    4.00615279      7.26074754  -16.18502176   34.00940965     -2.44186548   -3.71768912   -6.39882738
    1    1.69406963    5.86508807    3.27305134      0.28965373   16.63603769  -10.52844268      0.10894608    3.50539559   13.68257160
    1    1.15324075    4.52718013    3.53848397     -9.88312633   -4.58858866   -6.18918061     15.49298536   30.09855629   28.29340825
    8    7.33738940   -6.00439630   -4.92839513    -38.69049874  -10.54630057   22.67603012     -0.59161215    0.47234741    1.93769160
    1    7.99411804   -5.99920933   -5.56769774     45.45648623    8.61780510  -35.98718784     13.43986747  -10.55887815   10.02436990
    1    7.21100157   -6.96155433   -4.90338936     -7.64724765   -8.82555791   11.06170964     -2.55960784   10.10579880  -11.19087637
    8   -8.73627517    8.76908957    3.69331196    -14.70388799   -4.95439407   13.76414217      4.23766844   -0.49385040    1.63442027
    1   -8.82799345    7.95391165    3.19564131      2.21069827   -7.92273101  -13.20201592     -2.60562093   -7.32890211    3.43118676
    1   -9.17595725    8.45350560    4.52513056      5.89758799   10.73671695   -7.12166488      7.20352893   11.83473725   14.52510749
    8   -2.63016939   -8.55456827    3.45040263     33.04307974    1.41908959   31.98446266      4.83830237    3.06694626    0.38848551
    1   -2.97287958   -9.11523230    2.76380792    -16.84851808  -10.37485764  -23.37961180     12.84029192  -16.27274945    0.34338490
    1   -2.92962531   -7.68555969    3.19819266    -17.08023479   14.03965592   -9.12736944    -17.27355385   -6.96178527  -17.36884110
    8   -1.82005784    4.06537155    6.79080007     56.29152987   21.13110867   28.65154104      2.35596281    2.78594179    2.77000715
    1   -1.45102835    4.65188733    7.58482658    -25.47774224  -33.59055772  -41.56199580    -10.55675587   -4.96992861  -20.14535504
    1   -0.94546370    3.65693682    6.46942107    -30.96360710    9.10983001   10.83089077    -23.43649483  -24.82691038    0.61939230
    8    2.91424191    0.98080825    1.71690144      9.45484436   18.25983473   38.53985848     -1.50919715   -1.23351761    1.42820374
    1    3.58524317    1.72179548    1.77685921     -7.66950056  -10.66273508    5.12339691      1.44000539  -14.14185335   -4.34955112
    1    2.93691339    0.87581987    0.79763297     -3.66795169   -7.62088466  -47.30938715      2.94379682   11.10710337   -1.33631772
    8    2.34865536    1.98857867   -7.74428708     17.75437629  -17.16381190  -34.21337900     -2.92645570    0.28529840   -4.67589279
    1    1.64875589    1.43674242   -7.38990601    -14.90333930  -16.25842914    2.89624307      5.75909665  -25.34201147    6.07501399
    1    2.23250460    2.67470707   -7.13153199     -0.61778725   38.21852744   23.95401138    -13.12088240    1.13736200    5.01005698
    8    6.17398632   -0.03794244   -7.55192767    -25.20211238  111.01046974   28.06940729      5.03995824   -3.13222952    9.47190409
    1    6.57997538   -0.65701408   -8.04007532     36.41836774  -68.73496223  -45.98502668    -21.69143313   15.07230092   -5.22319872
    1    5.62101069   -0.51067700   -6.97151923    -19.61638184  -33.19912967   19.51149103      3.66672706   14.70396578  -25.23129241
    8   -0.52509351   -6.98808621  -10.25637157    -22.42540996   24.71049157   -5.88946082      1.65631244   -3.06629371    0.69433399
    1    0.26926461   -6.62914874   -9.88036854     18.95593205   29.75251807   12.30476633     14.40548965    3.88435561   21.59617983
    1   -0.16528971   -7.82988140  -10.32580112      5.53205630  -55.87095047  -17.91206413     18.91473599  -10.81797854   -4.22413411
    8   -4.15060612   -0.01770644   -2.52444461     53.52579667   14.58791695   65.75634220     -0.34207644   -3.07431157   -2.03229896
    1   -3.98557525   -0.73929161   -3.08722938      0.25693511  -29.08150949  -32.61592399    -23.44570791   -4.62949611   -2.66827461
    1   -3.30534329   -0.15109804   -1.91269477    -49.92008674   11.78264122  -36.56034569     38.92454557   13.26792403   -4.74532205
    8    7.33929448   -9.71476791   -6.83940154     36.15369771    8.13670403  -14.98543393      3.38380134   -4.79327920    1.34314789
    1    6.95580402   -9.29918255   -6.03862723      6.70569710    0.21748748    4.13165709      8.43297980  -20.43768189    0.44758018
    1    8.29102694   -9.28658811   -6.90441934    -50.38231430  -12.94154667   11.62523393    -23.51059683    1.84614210   10.33769177
    8    1.87341546    4.11664667   -5.89959541     -3.84333872   -9.74860541  -43.94439522     -3.81085785   -0.35730758    2.78101217
    1    1.23635483    4.37823284   -5.28072367    -27.70832548    7.72967557   25.30455499     -4.26670840   17.09300226   -4.64014588
    1    2.64359143    3.99623508   -5.36450881     27.91863361   -5.69991417   20.39149611     10.05867598   14.42700491    7.08530317
    8    5.92422535   -0.63568270    3.00234685    -21.70882987   24.12276425  -80.30271433     -0.81156458   -0.79817664    4.16550871
    1    6.24400940   -0.12940116    2.11474328    -21.12940980  -38.38794224   66.92252143     33.85393256   27.96696483  -14.39293229
    1    4.97160348   -0.97167189    2.71974066     59.30751579   19.12087265   11.32345967    -27.34280824  -20.58663769   10.43954793
    8   -5.70015098    2.19611517    5.29291865    -29.96013798    1.75740332    3.64976165      2.58988483   -0.79464882    3.53457126
    1   -5.32286149    1.82472070    6.07926717      7.26938495   -8.28033765   21.74453147     -5.24731720   -1.89079522  -34.21801978
    1   -4.90863901    2.35859843    4.82650403     30.74103152    7.58473168  -20.65438322      0.32634750    9.03619759  -12.87742703
    8    2.57312988   -5.30336078   -3.09096496     -2.71103018  -15.06355093   11.73167814     -0.53240407   -0.80914768   -4.20414009
    1    2.49528142   -5.10077959   -4.02989622    -12.64221807    2.40207487   -9.31822381     -9.00608625    7.56451244    5.55535175
    1    1.69235629   -5.71001773   -2.84383771     13.82677280    9.37212683   -6.59127414    -16.08535528    2.76820275   -9.73837371
    8   -3.83964011    2.24671077   -9.43832960    -22.82307621  -50.09361765   -9.99941837     -0.61852532   -3.68483615   -0.82092068
    1   -4.23003642    1.56967563  -10.10814275     17.38497908   30.55754794   25.40524488    -11.52990481   -6.87850320  -43.82049064
    1   -3.67433961    3.00697557  -10.00070817      5.46362736   16.28155698  -16.14143414      3.74157388    2.84026881   -4.20392330
    8   -1.13336042    7.10352350    3.80597138    -20.61255882  -45.72607947  -17.76208920     -3.15258942   -1.28146977   -3.76654426
    1   -1.11731841    8.02551473    3.68450074      8.49713149   40.01400010    2.41319606      7.19591179   59.78925575   13.19949071
    1   -0.69695760    6.93428475    4.64460766      8.39466431    7.36926229   14.42357355     21.34392485    7.38236493   35.82149421
    8   -8.84558047   -5.21817319   -1.86317101      2.04346049   13.01020715   10.71099974     -0.07669694    3.62179810   -1.89289844
    1   -9.23723798   -4.58585194   -1.20336339      4.08715115  -10.66339443   -6.94037778     -9.47179278   -8.67894816    0.81086544
    1   -9.19809938   -6.08675307   -1.53317132     -4.30089216    6.96736084   -1.00101983      6.54604277    8.93758782   19.85775382
    8    2.90462806    5.77018006  -10.18199066    -11.87721691   15.01089229  -20.53949741     -1.09453302    1.56387869   -5.44791904
    1    3.78209663    5.55699797   -9.90122459     29.04728292   -9.56056847    8.81999155     64.88884074  -17.29922006   16.39006499
    1    2.43088438    5.65401946   -9.36835486    -17.70854044   -4.69673458   20.78167656    -21.88188940  -18.94087378   39.22951048
    8   -1.54000869    9.10444372    9.61632502     42.85908719  -22.88635285   -9.26794460      4.35444894    2.21319852   -1.00146413
    1   -2.36144927    9.23520568   10.07986520    -21.66133016   -1.49331953   14.75373763     15.78898388   -9.87641505  -11.00416479
    1   -1.08359950    8.43001932   10.20234171    -18.71066602   13.87326722   -9.28664484      9.72774429   -7.76861596    0.80069967
    8   -3.40198427   -1.85322136   -4.46823545     -6.16315171    1.93678172   -5.29482187     -1.11763938   -0.79740210    2.69211121
    1   -2.46157756   -1.74131999   -4.30083571     12.14551362    2.26885505    2.73188160    -20.44237782   19.72518405   20.15542420
    1   -3.47034845   -1.39176872   -5.33679299     -4.14125769    0.00385680    2.68813737    -12.86190470  -13.22267198   20.37674972
    8   -8.66230708    2.79947255   -8.63027914    -48.91053571   -1.77145523   12.69988637     -1.05053234    5.13919423    0.73124640
    1   -7.77945343    3.02660112   -8.46633537     48.56931478    7.54666969   -0.43566700     33.83925551   -7.14721502    6.62271016
    1   -9.04924797    3.27186297   -7.83863817     -1.99490960   -9.26694156  -11.61828770    -10.90243447    5.58772720   11.39451951
    8   -3.24728980    5.57680966    3.21037922     -0.73014850    3.77268492    1.03390602      0.10849693    1.75348920    0.04584128
    1   -2.51127073    6.21178199    3.39632017      1.16921950   -3.84443050    0.44146899     22.33947127   26.23851080   19.33406937
    1   -2.92328971    5.17028323    2.37108837      1.04927024    0.85019032   -0.41623313     21.93974477  -27.78215461  -15.55556956
    8   -4.89728633    5.50750903   -7.04425052    -45.38414754   -0.57928575   40.44205592     -1.60895529   -1.48710600   -1.73131692
    1   -4.20854821    5.86708503   -7.52008360     39.42547012   26.38501781  -28.37873210     -9.02899288   -5.59141182   -9.25145941
    1   -5.23128176    6.30961645   -6.54854350      3.12477063  -14.89631814   -9.34641195    -25.51165390   39.50449881   34.50998301
    8   -0.89227861    9.21879312    7.00168083      0.49938607  -39.34080080   59.85964974     -0.81551363   -2.78410084   -1.81614648
    1   -1.00269368    9.14448393    8.04872582     -2.87176987    7.68771982  -62.65035076      3.71722445  -29.45135209   15.12796382
    1   -0.50711475    8.30331388    6.82067303    -10.25505965   25.92413193   -2.13576189    -23.57832409   34.94317346   22.42101664
    8   -9.29045351    6.46214788    1.99185163     -2.62502253   63.63446089  -50.72649925     -1.91963609   -2.65838174    2.60056601
    1   -8.49341527    6.34913324    1.44218521      3.82825948    3.40760199   -4.13169726     20.67898969  -21.55620913   -2.87603385
    1   -9.15026737    5.78205337    2.52984026      6.42986422  -71.52518002   57.25130483    -23.17194166   10.40284295    2.57214031
    8   -3.76834855    9.19521617   -9.56814329     22.71154485  -38.55934812   -3.46630859     -3.52975189    1.48608674    0.31547963
    1   -4.10796270   10.02717258   -9.84024583    -19.09424736   38.51537998   -6.55585849     19.75908550   -3.27107009   -3.28959921
    1   -3.72257665    9.30827743   -8.61831545     -0.82390912    2.64225280   13.77196629     -0.63102101    1.94817710  -13.94871717
    8   -8.75575723    9.49703553    9.13765042    -40.29218214   41.36292027   14.96061611      1.17207724   -3.58976335    0.32768635
    1   -9.57151861    9.78047842    8.56442275     38.49152245  -13.60797690   28.99172315     31.92845412  -13.51532694    6.26556784
    1   -8.85112713   10.09989572    9.97783536     -0.76229915  -23.49145160  -50.37154520    -27.31893881   23.29324453   14.68923303
    8    0.45902590   -0.89239624    4.70586215    -37.35075163  -32.93505221  -16.90384602      1.72641095    3.93459257    0.18182958
    1    0.51646506   -0.09569361    4.16771576     11.80209204   14.91376947   -2.15373448      3.84870613  -15.35298808  -12.38665582
    1    1.15014713   -0.84235601    5.34304504     28.09594920    8.83820046   18.92377022    -22.30625197  -15.49094491    0.67985167
    8   -4.62234780   -9.13485507    6.50466646     -5.94011899  -67.78220133    3.84448333     -2.43870742   -0.70322930    2.08785650
    1   -5.48812013   -9.59616563    6.82160466     35.08295461   18.05806514  -12.16854890     35.45509460    0.88625531   -2.12751217
    1   -4.06448414   -9.99935343    6.32114721    -30.08082916   47.90889676    5.74179208     20.71353257    3.33502028    2.60582415
    8    0.45846022   -3.29295267   -9.10985321    -51.29682668   59.27386261  -60.33352200     -0.23950785    4.77471323    0.23512492
    1    0.83514936   -2.68857366   -8.50765580     19.65741068   12.84259213   35.12876296      0.12225986    2.06490306   -1.79195642
    1    0.69460647   -4.12159277   -8.91093427     33.42221400  -71.51456927   36.02879104     26.30904707   -6.47457542   11.98475927
    8    2.01057483   -4.91935678    5.65858087     32.06776927  -15.47858471   -7.35846024      0.06972026   -0.82983476    0.22963625
    1    2.44143786   -4.90690143    6.52612303      7.32248743   -2.98152351    6.88590335      5.33917399    3.57877527    3.47179877
    1    1.19867990   -4.55196913    5.91855902    -38.41832031   18.25035331    6.47066424    -15.28562964    0.98869612    7.98584005
    8    4.63947188    1.68676271    9.01891451    -24.99287127   -2.81178734  -16.37190518      2.65627608    3.22707308    0.31929942
    1    5.25853817    1.17844428    8.48629053      8.78882819   -6.06992358   -9.31596717     -5.30267748   18.93626580  -28.07151060
    1    5.24654389    2.13749107    9.57913957     22.02033758   13.86328553   18.22898843    -19.36310536  -16.70351655  -20.16293860
    8    9.14948769    1.20767245   -4.21384195    -36.71338853  -17.83421849   -3.39379271     -4.58463513    1.03139469   -5.92670339
    1    8.65687475    1.33815188   -5.08189595     16.14795867   -0.58255228    7.70459393     17.93187460   -4.35244798   45.31991739
    1    8.45711167    0.59874681   -3.79667392     20.54784884   17.82317752   -2.06440852     23.95931818   40.62827543   -8.59171896
    8  -10.14740198    7.79639829    5.93329997    -45.45041860   65.91371757  -21.36467920     -5.22097221   -3.00798109    1.29820478
    1  -10.35303346    8.59510416    6.52529537      6.78055609  -22.16916942  -18.47574642      2.35702191  -23.62980990  -34.52337472
    1   -9.54101798    7.32612804    6.45992817     29.80980125  -29.24973077   30.39466447      4.92588458    3.02321555   -2.67977011
    8   -8.46333832   -2.86044384   -9.30618981     46.30953215    8.21561980   -1.99120499     -6.24755996   -2.31690773   -2.56154618
    1   -7.54404603   -2.97917507   -9.72274185    -34.15414714    3.80835788   -1.76904447      6.50036333    2.89155370   10.70099388
    1   -8.20086510   -2.15914941   -8.66115926     -7.85245596   -4.98192243   -3.11944822    -13.41506281   11.56224942    3.88847461
    8   -7.66164064    4.84185494   -3.91431144     17.77661199   33.57762892   25.88492313     -2.47875976    1.40076880    1.63898769
    1   -8.03422517    5.45217434   -4.60516716      6.42739835   -7.77843740    8.54070511     11.60033522   -3.43095075   -2.30754979
    1   -7.08648815    5.48603782   -3.35960976    -23.74752431  -26.81005568  -27.41754208     -8.46771411   -5.34654031  -19.44822306
    8    6.34441000   -8.71275051   -4.48120785     12.20355370   27.69481883  -32.35412434     -0.12631341   -2.88467785   -2.48056453
    1    5.53332932   -8.26018053   -4.17914709     -2.34338236   -8.89846592   11.70858369     -7.89720442   10.49945489    6.70847086
    1    6.39998105   -9.50710574   -3.96004300     -9.11344461  -14.12504641   19.68258794     19.21870862    8.19808064    3.45958725
    8    3.69753891   -2.19237329   -8.56256188     42.64400261    3.16796668   18.52219122      0.17397030    3.52443678   -4.52720545
    1    2.79390012   -2.09679413   -8.34574965    -31.69866039   10.26741418    7.45274528    -61.68148466    2.60977633    1.79039023
    1    4.08589593   -1.95102886   -7.64220939     -9.04253678  -13.21063347  -38.30009795    -33.10927428  -15.27902302   -3.61756017
    8   10.27864245   -4.41282079    5.84111488    -13.49394969  -20.25521058   -2.03531498      1.56261446    8.35623060    0.09384701
    1    9.83068010   -5.18995261    6.28628853      3.82352567   15.40164713   -7.97538116     -1.87261058  -13.03718004   24.00976870
    1   -9.67579752   -4.31005620    6.43284283      8.95916673    4.06909150    8.71427695    -15.00467670   -6.26128032   -3.95219892
    8   -0.85074386   -0.73508430   -3.75307964     11.14951766   -8.26246478  -80.42046931     -0.90118827    0.75260196    1.99601374
    1   -0.76741017    0.23146573   -3.91071061     -1.91128555    0.65222640    9.74777630      7.49947271  -19.36299596   -8.54687598
    1   -1.02203131   -0.83186463   -2.86982332    -14.81184138    5.22162547   69.21978661     11.63003670   -0.57201151  -10.69700056
    8    0.35508489   -6.46784875   -2.01163432      9.14455819    0.93642030    7.64277308      1.33516712   -0.26233709    3.16490277
    1   -0.31548087   -6.26927589   -2.69970321     -8.48968397   -0.16669323    2.51056592      6.50314812   14.46952519  -23.20653353
    1   -0.05753923   -6.12439783   -1.17407588     -6.02421186   -3.09256911  -16.62000561    -12.98483543    3.22329731   42.39698090
    8    2.72213368    8.19882963   -0.51299584    -13.12383342   67.01334564  -18.73631166     -0.88691747   -1.66145526    3.57293247
    1    1.81289507    7.93596428   -0.33918941    -15.58931404  -12.83845933    5.54771388     24.76185973   -2.70824204    7.06442117
    1    3.20292737    7.43835171   -0.40244365     21.67597598  -55.82188445    9.95040508    -17.92487462  -23.79098611  -11.35536768
    8    0.48443791    5.32194490   -2.27825307    -21.03801542   -5.78580887   -7.84207392     -1.60118509    1.56287069   -2.73953184
    1   -0.20624246    5.16175226   -2.96458296     10.40248235    0.82544912   10.64997594     20.05567277    5.33829240   22.51716859
    1    1.24357085    5.51690484   -2.83578088     13.92546294    4.93689882   -0.09397272    -26.57515377   10.20609263  -10.61532471
    8   -0.57008826   -7.41145238    4.74034881     47.70385805    8.22212347   -2.54056562     -1.18144488    0.01437402   -3.06173759
    1   -1.26742554   -7.89605592    4.30860423    -29.07218995  -13.07155253   -2.77478724     14.16896000    9.11855039    4.84428609
    1   -0.99772782   -6.91417487    5.46140143    -15.91296144   -1.05259025    4.38831236     17.28537786    0.38206122   -7.76218690
    8    6.64933966   -8.16866172    2.99249613    -21.47160824    4.50033008   11.48055906      0.99546949   -2.33850520   -4.87125320
    1    6.03270274   -8.10559440    3.77683075      7.42918215   -2.24859877  -14.27047183    -13.79233148   20.66393578   40.87057692
    1    5.98816969   -8.13078427    2.26109467     12.21070430   -1.54405220    1.08094829    -19.69741069    8.72996570   -8.28918041
    8    8.80905227    1.42269118    8.63639921    -24.82536864   -9.06944590   24.98525382      2.48733664    0.52389482   -5.62455357
    1    8.16763997    1.74686079    9.35099971     15.76512249   -9.95370743  -23.09472861      8.07367528   45.87440214   25.34524676
    1    9.09739047    2.28324048    8.31577532      9.40551648   15.52301368   -4.25336239      2.06982944  -22.24115242   12.09287742
    8    4.03160624    3.70844286   -4.40957249      3.81141681   -5.62057528   10.01951666      0.79706166   -0.78062871    1.92976078
    1    4.81295859    3.52418997   -4.99403909     -2.55353206    6.10367266    2.87872798     -5.11910337   -7.78191807    1.76114236
    1    4.23874749    3.06611799   -3.68601027     -0.88517639    3.25744569   -6.12287071    -22.66444493    2.51895655   25.72453792
    8    6.02645595   -8.09243833   -8.72539945    -31.90833305  -29.37654473   -6.71516983     -3.52405257    1.69564730   -4.55000711
    1    6.18154981   -8.73542748   -7.98768798      7.29237167   13.67973249  -11.05703461     -4.02215894   35.56718085   -0.04341894
    1    5.22290880   -8.55129761   -9.14208048     25.98457386   17.98015820   16.54189960     12.11808067    6.01209486    7.07795497
    8   -4.83696972    0.50739135    9.28287128    -49.77262876  -24.78185802   80.52645929      0.30566033   -2.17258126    2.72126304
    1   -4.54107012   -0.40861070    9.35868777      8.80706737   -8.81539497   -8.33223735     15.51598332   10.10271776   -6.08264626
    1   -4.34865322    0.85165092    8.61772781     43.05261232   26.52782364  -63.90351214     -7.16068402   -2.38578120   -5.55811754
    8    4.90392840   -2.12506947   -6.23942938     -9.53011168   61.41997853  -31.25497962     -2.16017198    5.54677659   -0.39861021
    1    4.98774598   -2.15700919   -5.31112551      4.98349848   14.07131744   46.74107638     -7.96197085    4.77511944   -9.51006280
    1    4.93678711   -3.02516960   -6.31370780      6.08679753  -68.59564329  -20.61030126    -15.32367813   -8.72272982  -29.33254871
    8    5.81436372    8.56457431    2.14302665    -36.77643807  -36.63022442   -9.71977385      0.49410545   -5.54533492   -1.05164741
    1    5.18293518    8.25857228    2.82864272    -11.87592946   -8.90948068  -14.02340713    -31.26370759    0.76785858  -18.69938208
    1    6.26125320    9.03758251    2.77094926     48.16499329   45.58149051   26.44755923      6.17778314   35.90569764   17.84625545
    8    0.13988362   -8.81570837   -7.19041717    -21.68029391   28.94770554   13.89517014      1.82616354    0.07523498   -3.23713945
    1    1.04158931   -8.61014845   -6.88338648     10.49802926  -13.43078949   -3.44196230    -11.98540086  -15.01108209   10.95527443
    1    0.23317334   -9.55844993   -7.77831947     11.81159760  -23.23189194   -8.03671728     -1.97500975    0.09670978   13.82527244
    8   -0.88998390    4.73002758   -4.72429129     66.91299914  -45.09208568   38.00408977     -1.37197428    0.13967715   -3.49860032
    1   -1.23401422    5.53649004   -4.76705914    -23.19347638   89.98802659    4.73595084     42.55413950  -15.60223666    0.10272353
    1   -1.53111970    4.38160112   -5.24739308    -43.49454179  -41.38980538  -40.08859294     -6.04181764   14.21089449   -7.96033162
    8    4.94965783    2.43232956   -8.07310650     10.51739597  -17.90202776  -11.69095156      2.58296165    3.91858602   -0.74178084
    1    5.47940266    1.58296774   -8.04746246    -15.42878225   13.96108122    0.76780318      7.17553622   29.07415867    2.50740537
    1    4.02069301    2.08742479   -8.13951842      7.15074785    4.72865252    7.40699882      2.48060695   -2.11139274   12.21111244
    8    3.00262577    5.97372650   -3.22193575      0.51342223  -21.53345454   10.99329893      2.65583216   -2.97121618   -5.66998215
    1    3.42802747    5.26631817   -3.76799383     -2.22595926    4.29655440    4.57816524    -22.01463352   10.27313559    4.74324083
    1    3.14688899    6.74742033   -3.75264132      4.07321178   14.91437480  -18.85353188     -3.85449175    6.84958148   -0.08980081
    8   -3.20178246   -3.25909250   -7.57395011     13.41972680   21.82444330    3.48194966      3.34425706   -3.02548829   -4.45641187
    1   -4.10351621   -3.57479358   -7.74865651     -9.28885686    2.88990224    2.32997625     15.94192778   12.50206578    2.02558527
    1   -3.30622237   -2.28266895   -7.37573543     -5.17979142  -22.67803331   -3.87706467      9.05982828   32.00263866    9.25116274
    8    9.95681791    0.75947514    5.13770673    -55.23908876  -10.70731405  -13.95735880      0.21702006    4.68324427   -0.12087497
    1    8.91274441    0.89268033    4.97122985     62.54209575  -10.07163981    9.80718217     33.07583975    9.72853616   -1.80006926
    1   10.06962774   -0.22124243    4.94157998     -7.65721998   18.02428645    6.99668698     -6.18457340    5.54451397   10.90213966
    8    7.17333725    8.79163322   -8.55022217     29.35798500   -9.34967634   68.52241742      6.68941211   -1.87147765    3.86893060
    1    7.07669332    9.58642374   -7.89902029      8.30055210  -29.76426551  -30.90035702     -6.93231352   -3.15579459    4.84155646
    1    7.78896744    8.16632090   -7.96791976    -33.81791922   38.22208352  -36.33108626    -11.38044884   10.03374265   -4.14957858
    8   -3.25108351   -3.60475664    2.90525192     -2.64496568   -5.30832723   -4.65910771      0.22275017    3.43543309    1.22956009
    1   -3.68588725   -2.87738454    3.40387150     11.45202278    0.59963330    0.54398920      4.27197050  -35.21246596  -14.30132943
    1   -2.32792804   -3.59603735    3.24078640     -6.04928626    7.75712676    6.05386954     -6.78907362   -2.70099465  -20.37435517
    8   -7.07227413  -10.11252163   -8.58561342    -15.71172907   14.60914422  -10.32880785     -8.45888422    2.22153017    2.96010871
    1   -7.73949762   -9.49850970   -8.99931677      3.70331475  -12.92006859    2.23100816     46.41473872   -9.08643064   27.76338441
    1   -6.26730650   -9.66271351   -8.89425981      9.01792366   -5.41874875   -1.48756856      5.84374955   15.93089987  -31.51491701
    8    8.76935891    3.56338693    1.57394249     50.48669727  -47.51643275   41.06018988     -0.36216598   -3.17124876   -1.63659979
    1    8.52801542    4.06805151    2.38012043     -3.59697583   -0.32020628   -8.44889835    -24.02589269   37.34591162    3.97719872
    1    9.39322484    2.81159594    2.00947234    -46.66526280   49.11809389  -37.99756831     -1.01177346   13.33760593    7.13079032
    8   -8.41869763   -3.98902774    7.53430991    -14.40010614  -17.14928337    1.97703495     -0.57626163    0.15401540    3.88011149