 BEGIN_INFO
   #
   # This is a XCRYSDEN-Structure-File
   #
   # aimed for Visualization of geometry
   #
   # Launch as: xcrysden --xsf .HICOLM.XSF
   #
   #
 END_INFO
 # estrutura final
CRYSTAL
PRIMVEC
      20.00000000       0.00000000       0.00000000
       0.00000000      20.00000000       0.00000000
       0.00000000       0.00000000      20.00000000
PRIMCOORD
    6    1
