 # Historico de coordenadas
ANIMSTEPS   99
CRYSTAL
PRIMVEC    1
      25.45723430       0.00000000       0.00000000
       0.00000000      25.45723430       0.00000000
       0.00000000       0.00000000      25.45723430
PRIMCOORD    1
  166    1
   18   12.72572368    4.33108520    0.78647131    0.02421481   -0.04609408    0.02363183    0.05717940
   18    0.73817662   -2.29571066    2.80765639    0.00766426    0.01635718   -0.01000857    0.02065115
   18   -0.36603068   -0.55350195   11.62307368   -0.00826217    0.00927315    0.00237628    0.01264522
   18    1.34967624   -5.44184100    4.53852051   -0.04956219   -0.02345006   -0.00517709    0.05507375
   18    1.48276116    3.22994513    3.43705667    0.04928184   -0.02250768    0.03973387    0.06718687
   18    1.03596960   -4.31516724   -6.86597391   -0.01972482    0.01699798   -0.02010671    0.03289802
   18   -7.41219201    6.42255434   -4.96979464    0.00778183   -0.00257487   -0.00993658    0.01288109
   18    6.65198790   -7.56166919   -6.86604374   -0.01290540    0.02848213    0.00665544    0.03196992
   18   -3.81729288    0.58225929   -4.00655437    0.00628293    0.00340142    0.00663172    0.00974806
   18  -12.47208732   -8.96343714   -4.71993161    0.00553540   -0.00500170   -0.00669788    0.01002593
   18   -0.13104914   -0.03773353   -0.78637368   -0.00146641    0.00367918    0.00575504    0.00698622
   18    8.18479247   -4.23970143    3.84119288    0.01050588   -0.00401904    0.00400312    0.01193948
   18  -11.91483558   -8.43590136    4.19472771    0.03424523    0.00005295    0.02373721    0.04166766
   18    8.30868079   12.13024039    6.66287230   -0.01046659   -0.01409297    0.05119492    0.05412099
   18   -0.67147958    4.73292070    1.17370252   -0.00866512    0.00642122   -0.03564250    0.03723847
   18    8.58906549  -12.34960409    3.36414669   -0.03388606   -0.01513284    0.03560710    0.05143086
   18    5.00784963    8.08514784   -5.48934426    0.08549121   -0.05513915   -0.00388293    0.10180447
   18    9.31580025    3.31149967   -9.16834590   -0.02678969    0.00777980   -0.00465189    0.02828167
   18   -3.66744333   11.81139840   10.46339141   -0.01270537    0.00812254    0.02204226    0.02670699
   18    8.48434138    8.06858855   -7.71649148   -0.01496271   -0.03033497   -0.00194249    0.03388017
   18   -8.81970751   -3.36080047   -3.92815134    0.00081843    0.00087626   -0.00910950    0.00918807
   18   -8.77680319    0.24763373   -5.88947687    0.02148178    0.00542757   -0.00443799    0.02259693
   18    4.60919432    6.58320335    1.08689703   -0.00917321   -0.00050426    0.01011733    0.01366610
   18   -7.48146706    0.32149712    3.84442469    0.00196845   -0.01349228    0.02897894    0.03202648
   18   -9.76490302    6.21310290    7.65069252   -0.00397969    0.03003541    0.01295124    0.03294994
   18  -11.82563708   -5.25146607    6.55169718   -0.00833523    0.01364535   -0.00689275    0.01741211
   18   -0.59596744   11.26519374   12.32716701   -0.00505072    0.02720716    0.04319393    0.05129771
   18    0.07845115    9.36367181   -1.31166857   -0.00152868    0.00314624   -0.00524125    0.00630130
   18   -8.32663716    2.22768253   11.41337483    0.00380776    0.00336379    0.00614746    0.00797530
   18    3.31531387   -7.69348845    1.88085947   -0.05612226    0.02902182   -0.01791151    0.06567189
   18   -9.20700745  -11.70239909   -3.81966770   -0.00053657    0.00928626   -0.00846648    0.01257791
   18    7.98923608    6.15439922   -0.16842506    0.02119136   -0.00444796   -0.00070715    0.02166467
   18    8.75591320    4.66018849    5.01323616    0.02610800    0.02775505   -0.01676278    0.04162885
   18    3.88269958    6.42176263    4.82109158    0.00876931   -0.01435993    0.00040874    0.01683079
   18   -4.61172304    9.66969880   -0.86677104    0.00040757   -0.00053276    0.00198471    0.00209500
   18   -7.82611662   -8.82420132   -6.55698787   -0.00977240   -0.05792260    0.01610063    0.06090778
   18   -8.85902880   -5.73759451   -7.94978473   -0.01593264    0.02564017   -0.01847912    0.03539414
   18  -11.74040592   -4.38632748   10.74706168   -0.00789429   -0.00338882   -0.00351685    0.00928289
   18   -5.79476616   10.78440717  -12.02322641    0.01620985   -0.00535931    0.00848046    0.01906304
   18    1.04492578    9.07009833   10.20564302    0.01168188   -0.02040370   -0.02961130    0.03781014
   18   11.50306622    7.75929328    5.21425979    0.00205348   -0.00850197   -0.00720038    0.01132898
   18    6.06709351    9.42158708  -10.06880267    0.03389395   -0.00675782   -0.03516164    0.04930323
   18   -4.12122592  -12.16008218   -3.85081314   -0.00148144   -0.05142106    0.02599930    0.05763926
   18   -7.05472402   -3.37446519    3.85160858   -0.00323663    0.03044528    0.02150282    0.03741339
   18    6.68134598   -7.28733491  -11.78399665   -0.04227954   -0.01196482   -0.04880997    0.06567442
   18   -3.84428074   -0.65440144    7.99698788   -0.02673848    0.00084499    0.01248617    0.02952228
   18    9.93005716   -8.85375723   -6.96927730    0.05794585    0.05415627   -0.07222845    0.10727335
   18  -11.60773971  -10.57646235   10.42719416    0.00595969   -0.01761529   -0.00747790    0.02004334
   18   -4.58492140   -7.11712488    9.64311270   -0.00950745    0.00014094    0.00061510    0.00952837
   18   10.81467827   -0.37449750    9.17591681   -0.00948206   -0.00728335   -0.01124736    0.01641523
   18    7.80460467    8.55942812    4.31447156   -0.00159119   -0.00399629   -0.00133232    0.00450304
   18  -12.36096461    0.47964789   -5.71293038   -0.01929457    0.00467207    0.00163843    0.01991967
   18   -9.74801021  -12.08036257    3.25378774    0.00845343    0.00017319    0.00395603    0.00933492
   18    4.08537934    4.02362492   12.29739616   -0.00468192   -0.03854712    0.04131373    0.05669766
   18    2.05278133   12.34136050   -8.69367790   -0.02344798    0.09873753   -0.00070861    0.10148601
   18    0.70420045    6.08505916   -7.55477908    0.01886106   -0.00346764   -0.00615856    0.02014180
   18    3.62359754    4.03079311   -5.30394992   -0.01754584    0.03061409   -0.03065675    0.04674308
   18    8.57358950   -8.92635115   10.51347423   -0.00983987    0.00454800   -0.00708084    0.01294780
   18    6.87377525   -7.63967129    2.69276490   -0.02584804   -0.00259336   -0.00174269    0.02603620
   18   -3.70855943    1.71957681    0.04953265    0.00707168    0.00548376   -0.00295054    0.00942263
   18    7.79401925    0.23289139    4.39057827    0.04898034   -0.00881364   -0.00856727    0.05049903
   18    8.17350409   -8.52889099    6.10738698    0.02562323    0.00138411   -0.01798484    0.03133560
   18    5.84412465    5.79886450   -8.64253404   -0.02430869   -0.01249948    0.00163028    0.02738261
   18   -9.52147200    5.82260860   -8.41129440   -0.00881892    0.00805973    0.01090671    0.01617681
   18   -8.97634302   11.68843108  -10.13103615    0.00414262    0.00750656    0.00550397    0.01018839
   18   12.59183109    2.08346275   11.25855169    0.01031027    0.01205317    0.01383559    0.02104766
   18    5.09718175  -10.27397417    0.16211627    0.02281322   -0.01167987   -0.00580659    0.02627887
   18   12.64700434    7.65269144   -0.14541463   -0.00619444    0.05581486   -0.01987025    0.05956926
   18    1.81330027   -7.91136048    7.08080437    0.00506725   -0.02759686    0.00527388    0.02854956
   18    4.05779830   -9.64057819    4.61334767    0.02448025   -0.03187851    0.02734469    0.04861331
   18   -5.71680776   -8.85580160   -9.67454784    0.02798636    0.02755429    0.01887538    0.04357471
   18    7.02022653   10.18920062    0.94683697    0.00398566   -0.00082939    0.00235489    0.00470307
   18    3.99664440    3.37841717    7.45164435   -0.00302161    0.01826833    0.00943614    0.02078227
   18    9.61802949   -4.09860436    7.92529053    0.00095706   -0.00252735   -0.00582837    0.00642443
   18   11.75681237   12.45707665    1.86359281    0.01336677   -0.02812937   -0.00070217    0.03115164
   18    3.95940020    6.92989465   10.47918584    0.00804362    0.04103147   -0.02692108    0.04972953
   18    6.03247342    0.95995063  -10.90352444   -0.01746432    0.00317856    0.07835307    0.08033871
   18  -12.65836429    3.22992741   -8.24903231    0.03620758    0.00671369    0.00145523    0.03685350
   18    4.76258929   -4.93767017   -9.51553215   -0.00287835   -0.01103767    0.01056864    0.01555028
   18  -11.21981865   -4.24075258  -10.81056652    0.00487464   -0.01118289    0.00022956    0.01220130
   18   -0.78830981   10.30846516    6.73287043   -0.00169303   -0.00123419    0.01052833    0.01073477
   18    8.79012142    2.16981178   12.72438508    0.02824031    0.00947071   -0.02843472    0.04117940
   18   -0.25288196   12.27111517   -5.10918053   -0.00148772   -0.03055115    0.00437516    0.03089867
   18   -5.64243499  -12.16112262   -8.64954221   -0.00695708   -0.04640029    0.01781780    0.05018826
   18    9.29550719  -10.89880417   -4.37538540   -0.01739170   -0.05465226    0.06776488    0.08877736
   18   -9.66982835    6.86491058    1.77075601   -0.00952661   -0.09148440    0.03638395    0.09891382
   18  -10.13438055   -8.08288658    8.04906728   -0.07792811   -0.01993058    0.00100130    0.08044266
   18    3.62027314   -6.27567857   -5.48521937    0.00091452   -0.02240876    0.01819644    0.02888078
   18   -0.55097088    0.67616463    8.14719545    0.02950176    0.02026735   -0.00333970    0.03594820
   18    4.88324805   -4.80030111    0.62360448    0.02153681    0.02919984   -0.01422708    0.03897274
   18    3.95224139  -10.44865560   -4.12381549    0.01935755   -0.00171545    0.00984999    0.02178715
   18  -10.65498482   -4.24498730    2.61143297    0.00699791   -0.00811189    0.00946326    0.01429429
   18  -10.83468899    4.39930302    4.54529649   -0.03393254    0.01918433   -0.04334761    0.05829640
   18    4.82755778   -0.88245626   -0.42400298   -0.00359223   -0.00679243    0.00826500    0.01128501
   18  -12.41941083    5.09654844  -11.63884023    0.00971733   -0.01180794    0.00452513    0.01594775
   18  -10.45429299    4.29973162   -4.80876651   -0.00796533   -0.02355483   -0.01275670    0.02794656
   18    8.88545083  -10.82492542    0.37713541    0.01096619    0.04497422   -0.07478856    0.08795605
   18  -10.71232704  -10.78765568   -8.42073852    0.00520841    0.00882243    0.00706737    0.01244631
   18    5.17677276   -8.79111294    7.99576873    0.00565689   -0.02221010    0.03346889    0.04056422
   18   -3.89054342   -9.23384694   -5.66357503    0.02287726   -0.00805301   -0.02498626    0.03482145
   18    7.41879756   -9.93674553   -9.43360296   -0.00290266   -0.03090171   -0.00654323    0.03171994
   18   -7.40847173  -12.67251719    7.90926293   -0.02911992   -0.00852970    0.01558168    0.03411033
   18    0.56832462   -3.60299742  -11.90234946   -0.02629721    0.03779902    0.02041000    0.05036743
   18    5.38571156   12.44086882    9.75116826    0.00071681    0.00309805   -0.00180473    0.00365634
   18  -11.89409480  -10.10450450    0.86578523    0.00945382    0.02625443   -0.01428435    0.03134824
   18   -7.43221997   -9.41619566    6.46276383    0.03523941   -0.07123333    0.00244990    0.07951104
   18    3.27691873   10.70990337  -12.11831761   -0.01409280   -0.00591487   -0.00495223    0.01606602
   18   -7.05873264   -5.37569297    0.86454879   -0.00774019   -0.01120771   -0.01415320    0.01964272
   18   -8.41517721   -5.86281516   10.03231523    0.04489313    0.03121331    0.03862725    0.06694572
   18    0.38648500    1.02894286   -4.45959370    0.00256441    0.00458326   -0.00046473    0.00527243
   18   -8.33270358    3.09672634    6.63762092    0.04974850   -0.03249728    0.01444430    0.06115247
   18    3.02203092    6.86728587  -11.07691086   -0.00037173   -0.00749348   -0.01866968    0.02012082
   18    2.17697981    1.95898063   -9.16256123    0.00999211    0.01048204    0.00009393    0.01448186
   18  -10.83384025    7.93712122   -5.40736023    0.00233143    0.01717353   -0.01036714    0.02019513
   18    6.55385793   -4.40604462   -4.05850849    0.00088969   -0.00369070   -0.00197972    0.00428160
   18   -9.06807023    9.31402425   12.43292163   -0.01702983   -0.01452338    0.02903521    0.03666043
   18   -4.99155956   -0.58848537   12.12220351    0.00235151    0.01231700   -0.00991650    0.01598672
   18    5.09786689    0.80072476   11.24542631   -0.00197873   -0.02571877   -0.07286007    0.07729140
   18    5.46506052   11.25481326   -6.98868346    0.03139610    0.06303859    0.01243494    0.07151369
   18   -8.71688826    9.42833514    5.15179679   -0.03078042    0.02218875    0.00502864    0.03827613
   18    8.15560925   -0.10826783   -7.91585944    0.00153979    0.00100164   -0.00012769    0.00184134
   18   -8.43325164   12.52312947   11.58468144    0.00762121    0.08850745   -0.02912822    0.09348853
   18   -4.02200188    3.01556242   11.05472184   -0.00036645   -0.00682027   -0.00267236    0.00733430
   18    2.47619442   -6.33063285   12.63650877    0.04360945   -0.04258111   -0.01407702    0.06255476
   18   -0.10467585    3.92430821   10.94294801    0.00602584   -0.00768746   -0.00084298    0.00980400
   18   10.41863123    9.67886219   -5.28270716    0.02976592   -0.00180681    0.06071783    0.06764561
   18    7.69278623    2.43422639    7.59476513   -0.01131791   -0.02514580    0.01780202    0.03282253
   18   -3.90420011    6.23074554    0.95661838   -0.02958393    0.01206389    0.00013389    0.03194940
   18   -9.09850237   10.06398443    0.86945761    0.01318896    0.08524816   -0.01319334    0.08726547
   18    3.47574535   -9.35646598   -7.75113863    0.02981713   -0.00235684   -0.02854720    0.04134681
   18  -11.34114523    1.06690778    6.11126860   -0.00512900   -0.01167263    0.01720717    0.02141597
   18   -6.00615720    8.25359742   10.32349405   -0.00363416    0.00891001    0.00374778    0.01032673
   18  -11.41430986   -7.77219116   12.72235317    0.00633984    0.02238593    0.00711608    0.02433027
   18    5.27849859   -5.25132344    8.86834592    0.00056460    0.00871863   -0.00274810    0.00915889
   18  -12.40819367    0.63822542    2.66277188    0.00365964    0.01149307   -0.01444523    0.01881882
   18    1.71052882    8.48537370   -4.80724109   -0.07384754    0.01749091    0.01495620    0.07735036
   18   -5.46679357  -11.77275246    3.38016393   -0.01434844   -0.00109498    0.01158766    0.01847567
   18   -5.13934953    5.41174580  -11.62061320   -0.01646582   -0.00042396   -0.00349390    0.01683777
   18    0.71269645   -9.78926013   -5.58873437   -0.03553209    0.02727008    0.00703443    0.04533949
   18    1.73296718  -11.76657744   -0.46770959   -0.00258985   -0.00205910   -0.00939861    0.00996399
   18   -5.33224697   -6.25350521   -6.61106072   -0.01029787    0.06396521   -0.02144998    0.06824731
   18   -4.70913266   -4.16949745    7.30038726   -0.00898551   -0.01239945   -0.00689569    0.01679394
   18    9.77797933    2.31976537    1.51400414   -0.02469990   -0.00008558    0.01520250    0.02900360
   18   -7.48661483   -9.12624013    1.50753078   -0.01464214   -0.00722554    0.00489440    0.01704570
   18   -8.13656035    2.78856551   -9.79838283   -0.02422666   -0.01875959   -0.03933528    0.04986098
   18    4.43465778    0.43271343    5.37005860   -0.03562642   -0.00682863   -0.00260395    0.03636829
   18    7.10000580    5.02472129   -3.95355803    0.00099249    0.00961346   -0.00406664    0.01048529
   18    4.53153371   -4.16785001    4.27505952    0.04277964    0.01720756    0.00346316    0.04624058
   18    3.02427487    9.15717152   -8.39181786   -0.04102828   -0.10477306    0.03115638    0.11675373
   18    8.94020994   -5.80429626   -9.62192710    0.02579924    0.01095546    0.04221942    0.05067644
   18   -0.26062423   -5.25279912    8.19839695   -0.02077484    0.02587089    0.00799645    0.03412975
   18    5.25730855    1.72891982   -3.13584446    0.01156119   -0.01487249    0.01511097    0.02414940
   18   -5.92874921    7.48606265    4.24397972    0.02368085   -0.02026033   -0.01435937    0.03431406
   18   -6.64804486   -6.86848009    4.40382728    0.01967215    0.04340386   -0.04049920    0.06253858
   18   11.78168051    6.18411713   -3.95555119   -0.01824045   -0.00462535    0.00990957    0.02126752
   18    6.10244567    3.22239620    3.07907691   -0.02898519    0.00775777   -0.01355672    0.03292581
   18   -8.68474702    2.84148132    1.69841068   -0.02532371    0.03442501   -0.01482027    0.04523287
   18   -5.63815872    4.14946234   -7.95833581    0.04660140    0.03698370    0.04573181    0.07503920
   18   -4.59042824   10.78509330    7.23889440    0.01001938   -0.03907413   -0.04550289    0.06080862
   18   -5.27367910   -4.31646774   12.25867417   -0.00846905   -0.01338671   -0.00678039    0.01723086
   18   -7.88706012   -6.92391388  -11.57552709   -0.03406538    0.03549500   -0.02921691    0.05721864
   18   -9.14871096    5.98584377   11.75726310    0.00468212   -0.07861730   -0.01453296    0.08008627
   18  -10.63543145    0.81663734  -11.22859033   -0.03752766   -0.01532653   -0.01654343    0.04378256
   18    9.92913690   11.33277463   -8.36819008   -0.00939832    0.03592865   -0.02992297    0.04769256
   18   11.90488634   -5.27410847   -7.23242163    0.00507363   -0.01017956   -0.00342657    0.01187883
   18   10.41732571   -7.88578431    2.54101201    0.00320586   -0.00635262   -0.00812888    0.01080333
PRIMVEC    2
      22.16425967       0.00000000       0.00000000
       0.00000000      22.16425967       0.00000000
       0.00000000       0.00000000      22.16425967
PRIMCOORD    2
  166    1
   18  -10.49308836    4.34444994    1.03729030   -0.04989374   -0.03761509   -0.04880852    0.07928778
   18    0.47561576   -1.58657886    3.06694861   -0.00789852    0.02654843   -0.00414122    0.02800635
   18   -0.47357010   -0.50788193    9.38172216   -0.02009162    0.08702234   -0.02141057    0.09184211
   18    0.36679257   -5.09269683    3.81081872   -0.00320401   -0.00731086   -0.02857459    0.02966852
   18    1.86565208    3.18176705    3.76417355    0.00667925   -0.01174938   -0.02435915    0.02785728
   18    0.88886254   -2.51119663   -5.98706853   -0.00619546    0.02594102   -0.01310183    0.02971495
   18   -6.93072963    5.81516631   -3.67056829    0.01236060   -0.01680211    0.00430664    0.02129889
   18    6.70700557   -6.02148564   -5.53204681   -0.06421199   -0.02281233    0.01130583    0.06907534
   18   -3.23463459    1.00939615   -3.88533091    0.01173212    0.00478365    0.00493514    0.01359712
   18  -10.35287313   -6.84678273   -3.82637166   -0.03081705   -0.02733726    0.01951837    0.04558490
   18   -0.28915232    0.63054356   -0.74773899    0.00277858    0.00671131    0.00983803    0.01222902
   18    8.42020224   -3.53295571    2.76292822    0.02275492   -0.06350024   -0.03831841    0.07757814
   18   -9.23302986   -6.73978342    3.46179352   -0.06754060   -0.07714464    0.04362155    0.11142651
   18    6.54740636   10.22650127    5.92700708    0.00740479    0.00817165    0.00176875    0.01116850
   18    0.64220492    4.43387468    0.59288207   -0.00570612   -0.01533707   -0.02030355    0.02607718
   18    7.15974298  -10.53457373    2.60249782   -0.03470006    0.13262506    0.00020878    0.13708955
   18    5.69590436    7.28686742   -4.82462201   -0.30096564   -0.08271653   -0.19185145    0.36637319
   18    8.66409038    2.74579439   -8.04486950    0.00577569    0.00155516    0.02627021    0.02694255
   18   -2.74489538  -10.73772954    8.23599260    0.00642514   -0.04243959   -0.00544218    0.04326683
   18    8.79061352    6.05674639   -6.11646258    0.02776631   -0.00897287   -0.01385270    0.03230136
   18   -8.28061333   -1.57549802   -2.32802230    0.00387118    0.00219000    0.00367565    0.00576997
   18   -6.54195386    0.66000654   -5.65913529   -0.01364106   -0.00160477    0.00807753    0.01593425
   18    4.06157669    5.92649080    1.41086370    0.00838074    0.00348720   -0.02058020    0.02249316
   18   -5.73919008    1.57034971    3.79566440    0.00806675    0.03900597    0.03723193    0.05452298
   18   -8.84344320    5.64306444    6.25421897   -0.01961983   -0.01758064   -0.01434535    0.02999677
   18  -10.89656028   -3.53000514    5.27308508    0.02806592    0.00541919    0.01634668    0.03292837
   18   -1.32616237    8.83293605   -9.39487108    0.04211337    0.00044476    0.02307746    0.04802399
   18    0.01039874    7.89881931   -0.46557282   -0.01572316    0.02426991    0.03912719    0.04865371
   18   -7.65125839   -0.11198515    9.92478255    0.09510991    0.12017081    0.00863603    0.15349756
   18    1.59061703   -6.84723890    0.24685163   -0.04656799    0.04055838   -0.00362899    0.06186057
   18   -7.71536608   -9.84701631   -2.56579057   -0.11604843    0.01183608    0.05422501    0.12863779
   18    8.45642495    6.07912832    0.86026271    0.00161778   -0.01775168   -0.03871897    0.04262509
   18    8.09959094    4.85435603    4.37152167    0.02119592    0.02305807   -0.03128272    0.04426681
   18    4.23856842    5.99172043    5.03905090    0.01234298   -0.00668512    0.01930022    0.02386500
   18   -5.64699372    8.47461420   -1.21548602   -0.00466032   -0.00520538    0.00741793    0.01019021
   18   -6.72096663   -8.96421575   -5.83605410   -0.05256548    0.01833153    0.02348836    0.06042249
   18   -7.90647228   -5.23945206   -5.73848389    0.02770799    0.01874602   -0.03873701    0.05118302
   18   -9.78616119   -2.60812419    9.75246865   -0.09014379   -0.07761579   -0.01569947    0.11998578
   18   -4.41035673    8.50176286  -11.04251196   -0.04240148    0.00739751   -0.01726941    0.04637716
   18    0.61894524    6.72208340    8.75762874    0.02807817    0.08893455   -0.03180516    0.09853581
   18   10.41408790    7.48263396    4.25889113    0.00962268    0.03916786   -0.00208835    0.04038662
   18    6.33963433    8.68203646   -8.39043777   -0.00183389    0.00012554    0.00884559    0.00903457
   18   -4.47352959  -10.54546867   -2.93483180    0.10619238   -0.00185136    0.00530697    0.10634102
   18   -6.25985088   -1.83277994    3.19809021   -0.01611707   -0.02315854   -0.01002697    0.02994358
   18    5.35562953   -6.49349269   10.81997173   -0.01012388    0.01152768    0.00262001    0.01556422
   18   -4.31282462   -0.07163101    7.07534178   -0.03002069   -0.05420593    0.00569977    0.06222550
   18    8.86625927   -8.63912953   -6.91855246    0.04783232    0.05510157   -0.07360484    0.10364259
   18  -10.18817678   11.04133563   10.70363926   -0.00892522    0.02208791   -0.01710445    0.02932742
   18   -4.50974279   -7.70550910    8.48966270    0.02466917    0.07446950   -0.00460145    0.07858401
   18    8.49141678   -1.02050345    8.56133133    0.02752671    0.00261282   -0.01284676    0.03048910
   18    6.81807790    8.31929598    2.98429154   -0.02530486   -0.09554561    0.00403768    0.09892220
   18   11.00888854   -0.51256762   -4.48965470    0.08047800   -0.00269623    0.04271047    0.09114912
   18  -10.11432354  -10.47150663    3.59135513    0.00474003    0.02065483    0.03890823    0.04430508
   18    3.56089266    2.81160127   10.77535087   -0.03945468   -0.00891237   -0.06883031    0.07983555
   18    0.91384753  -10.78179093   -7.42069567    0.00637325   -0.01597814   -0.00346347    0.01754751
   18   -0.46811278    5.42701130   -6.44790200   -0.00865954   -0.01343298   -0.01399446    0.02124330
   18    3.23372150    4.47369900   -4.49127703   -0.00514743    0.00857024   -0.05131101    0.05227585
   18    8.62896394   -6.88337129    8.88773232    0.01238191   -0.01836985    0.04858047    0.05339312
   18    5.74793128   -6.78336145    3.13891774   -0.01768188   -0.00037419   -0.02725512    0.03249047
   18   -3.39724645    1.52006000    1.23312637    0.02780839    0.00787684   -0.03420965    0.04478450
   18    7.70352590   -0.59235488    4.27184697   -0.01668257    0.04207347    0.02559613    0.05199661
   18    7.56684513   -8.28237391    5.74188783    0.00015817   -0.02858196    0.02433088    0.03753592
   18    4.68347731    4.44007964   -8.59044608    0.02053248    0.03595205    0.05716182    0.07058050
   18   -7.46573220    5.49018672   -7.76609206   -0.08397048    0.07732331   -0.01387748    0.11498922
   18   -7.88583852   10.57906649   -8.73113268    0.03447785    0.03174743    0.04666545    0.06613838
   18  -11.00425466    2.06735595    8.98888711    0.02223398    0.02124775    0.11885537    0.12276977
   18    4.36231125   -8.83156192    0.37803467    0.06672520   -0.04851948    0.01521159    0.08389151
   18  -10.78842839    7.69037173   -0.88598113    0.01604092    0.00962757   -0.00154052    0.01877164
   18    1.13876627   -6.28747656    7.01618014    0.00690541   -0.04126813    0.00437870    0.04207037
   18    3.82052360   -9.75187640    4.57213288    0.00414039    0.00348937   -0.01864860    0.01941877
   18   -4.41987140   -9.04493276   -8.31131043    0.04460807    0.00044057   -0.07427310    0.08664045
   18    5.86590440    8.82632283   -0.71145879   -0.08034236    0.02806004    0.08662664    0.12143490
   18    2.74805176    3.05614999    7.15975941    0.00745008   -0.00156483    0.03173907    0.03263926
   18    8.05359096   -4.52062012    6.35756602   -0.02092214    0.02243541   -0.02778199    0.04138746
   18    9.97268786   10.58895659    0.90327222    0.02426622   -0.01985235   -0.04091663    0.05154741
   18    4.81064565    6.18138899    9.07294155   -0.01391646   -0.00460948    0.00295053    0.01495395
   18    5.03815857    0.45384432   -9.14734962    0.01425461   -0.00666155    0.02584462    0.03025747
   18   -9.49635888    2.66622088   -7.69967078   -0.02771306   -0.02113335    0.02939518    0.04559285
   18    4.09796907   -4.76892036   -8.13804236    0.01606014    0.02371559   -0.03419242    0.04460358
   18  -10.55092459   -3.88885927   -8.86369003    0.03381024    0.05648528   -0.02931950    0.07206491
   18   -0.15267613    9.44648159    5.74342877   -0.00603126   -0.00377034    0.00822842    0.01087651
   18    7.27058994    2.79641793   10.84803054   -0.00017516   -0.00377325   -0.02963652    0.02987626
   18   -0.83957023   10.29276990   -3.74689646   -0.03055416    0.00292259   -0.01156209    0.03279909
   18   -4.63234602   10.06897859   -6.14387975    0.00075555   -0.02077442   -0.02544555    0.03285763
   18    7.42359453  -10.71518366   -4.70445837    0.00929617   -0.04693566    0.06304979    0.07914955
   18   -8.81066043    6.95567186    2.30628152    0.01470440    0.08216441   -0.00116671    0.08347797
   18  -10.04832340   -8.23001413    7.21196520   -0.02534066   -0.03312532   -0.01282222    0.04363307
   18    2.48794823   -5.56777445   -5.08287363    0.00821703   -0.01958414    0.04155444    0.04666722
   18   -1.20587287    1.26370159    6.23758826    0.04869092    0.02357067   -0.01860284    0.05720532
   18    5.59363187   -3.87826740    0.35318805    0.01073217   -0.01991289    0.06626064    0.07001554
   18    4.70178661   -8.45076930   -3.26387170    0.01873156    0.03015262    0.00885827    0.03658580
   18   -9.62855639   -3.63670943    1.92180591   -0.01418773   -0.00381302   -0.01898407    0.02400470
   18   -9.11463069    2.54927887    3.75508406    0.01566587    0.04497057    0.02710514    0.05479471
   18    3.13291006   -0.62944474    0.43231733    0.00920508   -0.00044468    0.01011818    0.01368608
   18   10.87251336    4.90531534  -10.04723070    0.00227564    0.00683125   -0.00619268    0.00949704
   18   -9.27478807    2.70444239   -3.94305094    0.04345787   -0.01886627   -0.01423714    0.04946937
   18    8.20072140   -8.15482752   -0.39952259   -0.01260121   -0.01244118   -0.01368726    0.02238111
   18   -9.87837568   -7.29738683   -8.50890690   -0.01189664   -0.06988534    0.05097482    0.08731508
   18    4.45150064   -8.61636358    7.99459051   -0.00165075    0.01162301   -0.00614727    0.01325173
   18   -2.95631747   -7.33959074   -5.30272388   -0.00417634   -0.00862105    0.00262917    0.00993362
   18    5.85162947   -9.95831832   -9.89498642    0.00381621    0.02533423    0.04803181    0.05443751
   18   -6.56148854   10.48757172    8.20310956    0.02201750   -0.02193955    0.00512519    0.03150210
   18    0.36963529   -2.18389424   -9.96805987    0.01248909   -0.01590122    0.08976465    0.09201369
   18    5.71187035   10.40636798    9.31141085   -0.00662141   -0.04199116    0.00506349    0.04281051
   18   -9.95518915   -8.05890862    0.13102183   -0.00300689   -0.01365161   -0.00425772    0.01461288
   18   -5.54549307   -8.67199474    5.29650700   -0.02562200   -0.01166006   -0.02228813    0.03590550
   18    2.58519248    9.24690596  -11.02204917   -0.00083323   -0.01091256    0.01484418    0.01844256
   18   -6.80273280   -4.41735591   -0.07239441    0.01697958   -0.01031487   -0.01102915    0.02272322
   18   -7.68067520   -5.63050781    7.07005795    0.03073031    0.02697906    0.00226331    0.04095539
   18    1.17793824    0.98836328   -4.13974998    0.00555568    0.00874673   -0.01030687    0.01461514
   18   -6.38162075    2.85502832    7.22554844   -0.01236124    0.02021234    0.00169320    0.02375302
   18    0.98161107    5.79585603   -9.79481620    0.02372225    0.03494916   -0.00515231    0.04255273
   18    1.19601872    2.48337186   -8.48668686    0.00534973   -0.02426255    0.01338858    0.02822313
   18   -9.93585328    7.46104725   -4.79435811   -0.02497561    0.00045378   -0.00365785    0.02524613
   18    4.89525304   -3.45779690   -2.93500672   -0.01819538    0.00393122   -0.08342381    0.08547549
   18   -8.23725882    7.91899920  -11.01017988    0.00689550   -0.03810228   -0.01903571    0.04314731
   18   -4.78016692   -1.46085561   -9.81268223   -0.00600733    0.03418186   -0.03623982    0.05017781
   18    4.97560666   -0.74663191    9.44967740   -0.02089293    0.00706910   -0.00581544    0.02281022