 BEGIN_INFO
   #
   # This is a XCRYSDEN-Structure-File
   # aimed for Visualization of Fermi Surface
   #
   # Case: Tight-binding calculation
   #
   # Launch as: xcrysden --xsf HICOLM.XSF
   #
 END_INFO
 # estrutura final
CRYSTAL
PRIMVEC
      14.43164368       0.00000000       0.00000000
       0.00000000      14.43164368       0.00000000
       0.00000000       0.00000000      14.43164368
PRIMCOORD
  300    1
    8    2.40005678    2.43586368    0.92346052    -25.18802795   -7.35215413   -2.47142301      0.00000000    0.00000000    0.00000000
    1    3.22627750    1.88039051    0.89073938     12.89988252    4.71976384    2.44503251      0.00000000    0.00000000    0.00000000
    1    2.27795449    2.61548259    1.94315206     14.72968724    7.61076573    1.97554926      0.00000000    0.00000000    0.00000000
    8    2.66058511   -4.59341733   -1.82058117     63.11595372    4.25646922   37.22340167      0.00000000    0.00000000    0.00000000
    1    2.75523125   -5.57219083   -2.20706674      3.31271990   -9.19646195   -5.59168533      0.00000000    0.00000000    0.00000000
    1    3.57538682   -4.16860815   -2.13022223      5.63484796    6.25591197    3.85820739      0.00000000    0.00000000    0.00000000
    8    5.08594133   -6.27030558   -5.65611158     31.07290112  -10.67132304   20.91965684      0.00000000    0.00000000    0.00000000
    1    4.09087813   -5.97874440   -5.44520502     -9.65905549   -0.01575366   -3.78832009      0.00000000    0.00000000    0.00000000
    1    5.18396951   -5.81267237   -6.59429622     -3.72053006   -6.02960500  -11.33890002      0.00000000    0.00000000    0.00000000
    8    5.27069141   -0.64215560    5.11236518     -5.34174971   18.57291351    9.85058212      0.00000000    0.00000000    0.00000000
    1    5.91780299   -1.35190692    5.38051787      4.11001813  -13.12790112    0.27172336      0.00000000    0.00000000    0.00000000
    1    4.68978594   -0.87866272    4.32694697     -5.29725764   -4.67310503   -5.61993024      0.00000000    0.00000000    0.00000000
    8    0.64978692    2.90926405   -4.82311229     10.67902413   -2.79262416   23.85344182      0.00000000    0.00000000    0.00000000
    1    0.77138807    3.25887619   -5.78638513     -5.46951265   -2.72351325  -14.19251031      0.00000000    0.00000000    0.00000000
    1    0.71039374    1.92017388   -4.98763612     -6.88789454   -2.83008420  -14.56873513      0.00000000    0.00000000    0.00000000
    8    1.88768954    2.57195014   -1.86529403    -11.31587220   18.29498048   -9.11314981      0.00000000    0.00000000    0.00000000
    1    1.82483267    1.78442822   -1.18743452      6.73851670   -3.81206798    7.75465371      0.00000000    0.00000000    0.00000000
    1    1.38653480    2.21571552   -2.72012460     12.87210452   -1.33469577   -4.07449503      0.00000000    0.00000000    0.00000000
    8    5.13271388    2.07951667    0.03102421     -3.05086099  -20.49799074    6.25068585      0.00000000    0.00000000    0.00000000
    1    4.86701117    1.88567031   -0.98299695     -8.89723219    0.09478484  -12.07298404      0.00000000    0.00000000    0.00000000
    1    5.50184119    3.05909614   -0.03476507    -12.07745379    4.05346801   -1.35912495      0.00000000    0.00000000    0.00000000
    8   -0.33317139    4.21999121   -0.58521414     -7.23812299   23.55572253    2.91736424      0.00000000    0.00000000    0.00000000
    1    0.44957299    3.71453449   -1.00555510     11.72585531   -9.00681490   -1.41129903      0.00000000    0.00000000    0.00000000
    1   -0.65098762    3.45890040   -0.00322058      2.28547940  -12.90619110    5.76552093      0.00000000    0.00000000    0.00000000
    8    0.39838505   -4.69126296   -2.58244540    -85.29667743  -11.89390248  -53.18353311      0.00000000    0.00000000    0.00000000
    1    0.33200487   -5.30392905   -1.75101238      7.08829390   -4.65201020    5.93225710      0.00000000    0.00000000    0.00000000
    1    0.34163136   -3.67071001   -2.27504592      0.18845810   14.71036599   12.53539223      0.00000000    0.00000000    0.00000000
    8   -4.06694916    2.87215551   -0.05377018      7.10899364  -24.53150071   24.98370587      0.00000000    0.00000000    0.00000000
    1   -4.60890847    2.02681990    0.03853829     -7.02026159   -7.63190635   -3.16536341      0.00000000    0.00000000    0.00000000
    1   -4.89294130    3.42260304   -0.33765537     -4.95383048    6.37117146   -6.30356627      0.00000000    0.00000000    0.00000000
    8   -1.41088993    2.17749406    1.40890721     19.93054095  -13.70436253  -34.60061140      0.00000000    0.00000000    0.00000000
    1   -2.44387786    1.98675835    1.17135167     -6.26761243   -3.94776381   -3.77467256      0.00000000    0.00000000    0.00000000
    1   -1.20309683    1.18646229    1.29196825      0.28704493   -8.11572560   -3.89542662      0.00000000    0.00000000    0.00000000
    8    3.30815474    6.45612507   -0.10211717     -8.06679707   13.35690399   18.52422491      0.00000000    0.00000000    0.00000000
    1    3.22185433    6.27435700   -1.11009315     -0.06250457   -2.45746747  -11.52420948      0.00000000    0.00000000    0.00000000
    1    4.10093964    5.84042847    0.09722155    -17.26187716   -9.21306758    3.10274639      0.00000000    0.00000000    0.00000000
    8   -1.58862634   -3.73692841    4.17755783    -19.18418355    5.72047656   11.82921761      0.00000000    0.00000000    0.00000000
    1   -1.92348719   -4.37340571    3.45407554     -1.72444355  -13.02212462   -9.58413838      0.00000000    0.00000000    0.00000000
    1   -0.98296622   -3.18504850    3.60185489      4.58633674    3.50529065  -12.52212342      0.00000000    0.00000000    0.00000000
    8    3.51418153    7.02696068    7.05633263    -28.77805427   -4.60764142  -28.09385784      0.00000000    0.00000000    0.00000000
    1    3.28201541    6.47281063   -6.54920526     15.07896516   -5.98323130   -2.72256051      0.00000000    0.00000000    0.00000000
    1    4.52089677    7.03139566    7.19089133      5.36189914   -5.67158784    1.62864764      0.00000000    0.00000000    0.00000000
    8   -7.12022985    2.94586745    1.40709615     21.19474265   -3.71654308   23.99789801      0.00000000    0.00000000    0.00000000
    1   -6.59429734    2.39843079    0.72910756     -4.99916812   -9.35261813   -6.45704225      0.00000000    0.00000000    0.00000000
    1    6.70311071    3.55199405    0.83567181     -4.36824252   10.19576863    8.18235629      0.00000000    0.00000000    0.00000000
    8   -3.02392454    4.63921210   -1.67767366     -4.74493397    6.00420715  -39.89738494      0.00000000    0.00000000    0.00000000
    1   -2.49507301    3.75993365   -1.73421013     13.42550241   -1.97921376   11.60173212      0.00000000    0.00000000    0.00000000
    1   -2.71386356    5.08776805   -0.79310142      2.74860034    2.39502089    8.66245868      0.00000000    0.00000000    0.00000000
    8   -0.03912630   -2.21895362    5.79988735    -10.42537483   16.41473055   19.44077256      0.00000000    0.00000000    0.00000000
    1    0.45188192   -2.85437633    5.22486972      2.35608023   -1.15735751   -0.47893274      0.00000000    0.00000000    0.00000000
    1   -0.67355793   -1.89807086    5.07829415      4.38529640   -0.13911662   -4.46553959      0.00000000    0.00000000    0.00000000
    8   -6.02209650    6.52484882    2.83461451    -25.80151329    2.08185841   18.89653036      0.00000000    0.00000000    0.00000000
    1   -6.04468912   -7.19792746    2.09067961      5.76570082    7.80441075  -14.15792445      0.00000000    0.00000000    0.00000000
    1   -4.99851553    6.53758932    2.96391632      7.56340232   -2.30690342   -0.28772663      0.00000000    0.00000000    0.00000000
    8   -2.97620569   -1.81817603    0.82315621     36.83459717   11.54583773   11.33515909      0.00000000    0.00000000    0.00000000
    1   -3.78671285   -2.32145611    1.25814271     -8.44894353   -1.58360657   -8.91686236      0.00000000    0.00000000    0.00000000
    1   -2.77015151   -2.49290617    0.08383219     -7.07610007   -5.42490141   -6.27310372      0.00000000    0.00000000    0.00000000
    8   -2.40827163    1.17134403   -5.18282517     14.36628979   10.68146945   -7.39190944      0.00000000    0.00000000    0.00000000
    1   -3.14838599    1.13163409   -5.83578351     -4.52865666  -12.28788997    3.43466581      0.00000000    0.00000000    0.00000000
    1   -2.50259774    0.28691748   -4.64420400     -6.89315328  -10.17212206   -1.58247491      0.00000000    0.00000000    0.00000000
    8   -1.33617666    0.77842818    5.48812220    -10.52389956  -12.87539150    4.29498294      0.00000000    0.00000000    0.00000000
    1   -0.79049905    1.03617601    4.64682192      7.91798608    6.37612971   -9.30813992      0.00000000    0.00000000    0.00000000
    1   -1.60431279    1.70902226    5.78257146      0.22014738    5.42226515   -2.30910425      0.00000000    0.00000000    0.00000000
    8   -4.70180061    5.41386102    0.72274862      8.64679723    5.09693977    8.11771018      0.00000000    0.00000000    0.00000000
    1   -5.41494450    5.50441003    0.00009114      1.22260537    2.13856423   -6.69751666      0.00000000    0.00000000    0.00000000
    1   -4.90580488    4.55747184    1.22169318     -5.41112137   -3.06150421    4.95004504      0.00000000    0.00000000    0.00000000
    8    3.41687428    2.77326930    4.38669831    -24.70956701   21.63506656    8.86302998      0.00000000    0.00000000    0.00000000
    1    3.14224230    1.85055740    4.79752744      8.80587389  -15.91232855    4.39189089      0.00000000    0.00000000    0.00000000
    1    4.40622849    2.66158619    4.51121433     11.55651615  -11.94233137   -2.43812014      0.00000000    0.00000000    0.00000000
    8   -2.33394373    4.13147753    2.59603515    -15.50821210   67.31319007   42.05533878      0.00000000    0.00000000    0.00000000
    1   -1.70819321    4.31065658    1.76215833      4.57777217  -16.25903953   -6.08065124      0.00000000    0.00000000    0.00000000
    1   -3.13088459    3.58136777    2.18663331     -4.74655309   -8.49091468    0.50672622      0.00000000    0.00000000    0.00000000
    8   -5.04488246   -4.24822276    3.44057947    -25.87449771   12.09429531   28.14212735      0.00000000    0.00000000    0.00000000
    1   -4.07932158   -3.92520847    3.32914873      3.64405782   -8.71917017   -7.60827073      0.00000000    0.00000000    0.00000000
    1   -5.24414659   -4.36527016    2.45778570      3.69207247   -5.60436362  -11.86128968      0.00000000    0.00000000    0.00000000
    8   -5.05052558    4.60340743   -4.27183660     18.76797677   -0.15062435   -3.75804263      0.00000000    0.00000000    0.00000000
    1   -4.79634773    4.46607319   -3.27372333      1.11092192    4.05938402    6.88140155      0.00000000    0.00000000    0.00000000
    1   -6.06635861    4.82797080   -4.15658872     -5.20194763   -0.59434755   -6.58453000      0.00000000    0.00000000    0.00000000
    8    1.59014770   -5.53409215    5.58865829      3.16584676   28.01326136    0.44916422      0.00000000    0.00000000    0.00000000
    1    2.25199524   -6.33318921    5.56283348      1.31168684   -9.02506153    2.89157500      0.00000000    0.00000000    0.00000000
    1    0.68161741   -5.94328369    5.57822327     -0.09962503  -14.07484647   -1.37684695      0.00000000    0.00000000    0.00000000
    8   -3.04809805   -5.71498069    2.34643075      9.62782650   37.19421850    6.79550876      0.00000000    0.00000000    0.00000000
    1   -3.51025776   -6.63981227    2.50037213      4.36206998   -6.30751715   -0.45961377      0.00000000    0.00000000    0.00000000
    1   -2.36073659   -5.95844868    1.62967175     -1.78541962  -18.25150559   -4.27432138      0.00000000    0.00000000    0.00000000
    8   -2.16052865    6.51889550    1.07034437     18.12669004   19.77615954  -19.49751709      0.00000000    0.00000000    0.00000000
    1   -1.29546630    6.32041865    1.64045693     10.49700595   -4.05720745   10.08175896      0.00000000    0.00000000    0.00000000
    1   -2.83841264    5.84205141    1.48124273    -11.74623280   -9.43884288    2.35814354      0.00000000    0.00000000    0.00000000
    8   -5.95328726   -5.78633092    0.53121628      9.52133238   -5.53513409   28.27461185      0.00000000    0.00000000    0.00000000
    1   -6.33729237   -5.04319325   -0.06494693    -10.13203654    3.06702953  -10.08849572      0.00000000    0.00000000    0.00000000
    1   -5.78991563   -6.49340799   -0.16416341      3.45812957   -0.89550215  -11.22285704      0.00000000    0.00000000    0.00000000
    8    6.83107245   -3.00103479    4.56522909    -20.80175052   -9.58761692   12.93880721      0.00000000    0.00000000    0.00000000
    1    6.91864749   -2.25334310    3.87511527     15.82632667    7.87499024  -12.97591561      0.00000000    0.00000000    0.00000000
    1   -6.64717784   -3.36102312    4.34148185     15.92367925    1.41384933   -9.98494254      0.00000000    0.00000000    0.00000000
    8   -6.01662999   -6.83207766    5.33470111    -18.74518415   22.38857768   31.86937692      0.00000000    0.00000000    0.00000000
    1   -5.90773730   -6.23399878    4.45731083      8.17596150   -3.33529954   -9.97710290      0.00000000    0.00000000    0.00000000
    1   -6.13011876    6.62448943    4.97615230      8.27543864   -4.49212785  -10.44034388      0.00000000    0.00000000    0.00000000
    8   -6.91978697    1.95706890   -3.52675828     -2.15931420  -36.87762325   11.06885307      0.00000000    0.00000000    0.00000000
    1    7.14207312    2.77024347   -3.07898081      0.89836373   11.28697906   -5.07263694      0.00000000    0.00000000    0.00000000
    1   -6.00989294    1.97116795   -3.06140027     13.65438917    5.65007466  -10.15100708      0.00000000    0.00000000    0.00000000
    8    1.78359020   -2.87168194    0.73339113    -28.95963471   33.62594009    1.49108747      0.00000000    0.00000000    0.00000000
    1    2.03277857   -3.82144831    0.30681513      9.94801781   -6.94172591   -0.48106258      0.00000000    0.00000000    0.00000000
    1    2.25975874   -2.92761134    1.63595703     13.31795210   -8.88924935    5.16572968      0.00000000    0.00000000    0.00000000
    8    6.20318985   -5.25745265   -1.17362829     19.45051984   -7.41584261   -4.24646460      0.00000000    0.00000000    0.00000000
    1    6.12707148   -6.07169007   -1.81312966     -9.90408450   -0.03386697   -2.55437770      0.00000000    0.00000000    0.00000000
    1    5.22499799   -4.95041372   -1.28196560     -4.06225355    5.36365635    3.13600396      0.00000000    0.00000000    0.00000000
    8    6.31573527    3.92332567   -4.80146061    -17.61591203   20.56794865   15.96714002      0.00000000    0.00000000    0.00000000
    1    5.81523355    3.23748192   -5.38386772      0.77089368   -6.78684303   -4.96885691      0.00000000    0.00000000    0.00000000
    1    6.66436416    4.38263837   -5.61875087      9.10209194    2.43526083   -9.73929707      0.00000000    0.00000000    0.00000000
    8   -3.04712348   -5.52849990   -4.52870327    -19.30481105    5.85081805  -10.77721713      0.00000000    0.00000000    0.00000000
    1   -4.01218941   -5.67485837   -4.33396869      0.46509555   -0.39295046    5.18155549      0.00000000    0.00000000    0.00000000
    1   -2.54081536   -6.26375938   -3.97427170    -12.41157850   -5.38424592    9.69419396      0.00000000    0.00000000    0.00000000
    8   -3.42903530    6.70208564    4.54368016     -6.85373009   -4.12835499  -26.59412283      0.00000000    0.00000000    0.00000000
    1   -2.87992937    5.84805902    4.32207293     -2.90405651    4.88664416    2.33892056      0.00000000    0.00000000    0.00000000
    1   -2.90876359    7.02554219    5.34962099      9.02761147    3.74404489   15.00894354      0.00000000    0.00000000    0.00000000
    8   -2.09394968    5.72135521   -4.21530882      9.03871195   25.89092555   -6.99225373      0.00000000    0.00000000    0.00000000
    1   -2.85334873    4.98064342   -4.49210394     -3.21322051   -7.89736489    4.39166326      0.00000000    0.00000000    0.00000000
    1   -1.90412684    5.35424870   -3.29849397     -5.45881032   -7.73598639   10.02447132      0.00000000    0.00000000    0.00000000
    8   -1.29313093    4.71365140    5.37437257     -4.00102277  -39.79401359  -15.12170893      0.00000000    0.00000000    0.00000000
    1   -2.15535255    4.87216640    5.92895573     -7.57940423    5.63994158   12.21949544      0.00000000    0.00000000    0.00000000
    1   -1.81752217    4.84247262    4.49945869      4.10865154  -12.42419490   -6.71628566      0.00000000    0.00000000    0.00000000
    8    7.07322339   -0.32160012   -5.64648782     10.19034231  -15.21199478   -9.96555488      0.00000000    0.00000000    0.00000000
    1    7.11477300    0.46514610   -4.99102932      0.38388741   14.13853974   11.13267640      0.00000000    0.00000000    0.00000000
    1    6.03929832   -0.36467609   -5.49870574     -6.37270542    5.92003251    1.28064239      0.00000000    0.00000000    0.00000000
    8   -5.73320294    0.83053056    4.95593620      1.47056849  -18.23477026   -8.46833393      0.00000000    0.00000000    0.00000000
    1   -5.29622414    1.61263266    5.44800572      5.55992608    0.35850622   15.80835297      0.00000000    0.00000000    0.00000000
    1   -5.09918436    0.05741931    5.17685019     11.86506669   -2.71274240    6.15151897      0.00000000    0.00000000    0.00000000
    8    4.96822204   -5.05027238    2.59035721      6.28616939   -1.76417758   27.30036735      0.00000000    0.00000000    0.00000000
    1    4.24629797   -4.77920333    1.87574151     -7.16784179   -6.60454066  -14.48194380      0.00000000    0.00000000    0.00000000
    1    5.58758990   -4.19982300    2.72800640      6.96542850    7.25317260   -7.33071142      0.00000000    0.00000000    0.00000000
    8   -5.05649237    6.83339947   -1.86254798    -26.02394977   -5.37332846   11.97580542      0.00000000    0.00000000    0.00000000
    1   -4.23194214   -7.06055292   -2.13228129     13.17118798    4.39801748    0.26251487      0.00000000    0.00000000    0.00000000
    1   -5.63059711    7.10811581   -2.68230852      1.08023674    7.42921371  -14.32110662      0.00000000    0.00000000    0.00000000
    8    3.44568164   -2.57359387    3.31836009     -4.42665568   16.15791551  -25.95715643      0.00000000    0.00000000    0.00000000
    1    3.74724670   -3.58641644    3.11515817      1.54957453  -11.53141165   10.91939540      0.00000000    0.00000000    0.00000000
    1    3.32351941   -2.66983076    4.36607845     -4.13594667   -4.64233365   19.90106008      0.00000000    0.00000000    0.00000000
    8    2.45591314   -5.56855730    1.22617912      9.70519089   30.13907353    5.83144713      0.00000000    0.00000000    0.00000000
    1    2.15570641   -5.51082721    0.19165723      1.94159737  -13.29370448  -11.65796798      0.00000000    0.00000000    0.00000000
    1    2.49898349   -6.59251282    1.20499698      9.96192383    1.76773558  -15.05114476      0.00000000    0.00000000    0.00000000
    8   -2.83557331   -1.85716068   -5.19314484     11.30784062   15.68290016   23.86737453      0.00000000    0.00000000    0.00000000
    1   -3.68010065   -2.21781029   -5.63376810     13.56931212   -7.21768298    0.42308967      0.00000000    0.00000000    0.00000000
    1   -2.42165763   -2.36683440   -5.98605045      0.89398972  -11.57698887  -11.30421995      0.00000000    0.00000000    0.00000000
    8   -2.71412898   -3.90177360    7.09444216    -20.46245925   22.56065807   11.63367460      0.00000000    0.00000000    0.00000000
    1   -2.46253329   -3.85126937    6.10011475     12.58777165   -6.43642815  -10.52961985      0.00000000    0.00000000    0.00000000
    1   -2.43103327   -4.85854823   -7.10613059      2.86098115   -5.68977605   -6.64133615      0.00000000    0.00000000    0.00000000
    8    1.93378256    5.55376238    4.84177795     15.83250686   -5.69435868  -29.43119088      0.00000000    0.00000000    0.00000000
    1    2.14783772    4.54152174    4.92544733      2.21280559   -8.02146810    8.43347500      0.00000000    0.00000000    0.00000000
    1    2.48607854    5.85517754    5.61421996      7.96582876    3.40212129    9.45548582      0.00000000    0.00000000    0.00000000
    8   -4.22611277    2.81077709    6.74893043     -6.90600314  -15.15139351  -24.34581578      0.00000000    0.00000000    0.00000000
    1   -4.22125817    2.03133776   -7.05536313     -1.51712208   -0.16724478    6.38682163      0.00000000    0.00000000    0.00000000
    1   -3.82977591    3.52216123   -7.09268414      2.56437121   13.43052269    8.02727538      0.00000000    0.00000000    0.00000000
    8    4.25679783    4.22574528   -2.48704061     20.21811631   21.57971805   13.83900513      0.00000000    0.00000000    0.00000000
    1    3.55354895    3.52933391   -2.45662604    -17.29584661  -10.09305551    2.16651485      0.00000000    0.00000000    0.00000000
    1    4.64728591    3.96870606   -3.40111952      1.55020883   -4.46295431  -10.49485901      0.00000000    0.00000000    0.00000000
    8   -2.44240292   -2.64058211   -2.24208221     -1.96191996    1.88830188   23.28210792      0.00000000    0.00000000    0.00000000
    1   -3.30077649   -3.21556660   -2.12250097     -7.34665913   -4.87208464  -10.44122564      0.00000000    0.00000000    0.00000000
    1   -2.74509556   -2.17052160   -3.09519945     -3.68861666   -1.24306062  -16.28672987      0.00000000    0.00000000    0.00000000
    8    5.70196636    5.11370332    0.55451373     19.66414782  -16.69436058  -31.42881164      0.00000000    0.00000000    0.00000000
    1    5.34464303    5.60669459   -0.28465666      3.77017979    6.69471581   -3.22427350      0.00000000    0.00000000    0.00000000
    1    5.20879605    5.63791421    1.34461710     -7.73562997    1.50393765   17.98471743      0.00000000    0.00000000    0.00000000
    8    3.94363091    0.94630658   -2.74862238     18.05001933    1.66791365   16.29038774      0.00000000    0.00000000    0.00000000
    1    4.23935850    1.54507752   -3.44300907     -2.60858140   -3.20217195  -12.01610990      0.00000000    0.00000000    0.00000000
    1    3.41684400    0.35500922   -3.41360320     -4.06680255   -3.00386901   -3.45365895      0.00000000    0.00000000    0.00000000
    8    4.18131393   -7.12727721   -2.69680072      6.76373642   16.60207063   15.09450789      0.00000000    0.00000000    0.00000000
    1    3.83472179   -7.11167254   -3.67877433     -7.18105527   -7.95299890   -9.58713464      0.00000000    0.00000000    0.00000000
    1    4.72925727    6.41066153   -2.75187385     -4.00062534  -11.42475925   -8.37477536      0.00000000    0.00000000    0.00000000
    8   -3.88156864    1.90868583   -2.66840376    -30.28658806   -9.82405262   -3.41648829      0.00000000    0.00000000    0.00000000
    1   -2.88879051    1.83250462   -2.79499753     16.34032770    2.22942402   -2.82512386      0.00000000    0.00000000    0.00000000
    1   -3.95711173    2.80030995   -2.20714906     10.68358845    6.53753494    5.79891182      0.00000000    0.00000000    0.00000000
    8    5.56739080    4.67302097    6.03252311      0.30549819    0.98464346   24.45097454      0.00000000    0.00000000    0.00000000
    1    5.25219310    5.15628264    5.16184554      3.25189845    7.46387154   -9.21664829      0.00000000    0.00000000    0.00000000
    1    5.92451687    3.87271523    5.53238212      6.70145471   -8.40786783  -11.41586360      0.00000000    0.00000000    0.00000000
    8    3.93816759   -1.00546524   -5.22477733     22.00227105   13.29760262   -2.34407222      0.00000000    0.00000000    0.00000000
    1    3.03674842   -0.90521330   -4.75549080    -18.01535520   -9.02291659    4.95936840      0.00000000    0.00000000    0.00000000
    1    3.59702994   -1.73778432   -5.92048561     -0.01389834   -7.09475722    6.25956336      0.00000000    0.00000000    0.00000000
    8   -0.13008798   -1.44710876    2.69930565    -13.83795278  -19.92163965    8.71596115      0.00000000    0.00000000    0.00000000
    1    0.20163554   -0.51921029    2.32739167      4.88761633   12.44502399    3.94727670      0.00000000    0.00000000    0.00000000
    1    0.56686197   -2.08712179    2.26052234      8.09528058    0.62881126   -7.05683044      0.00000000    0.00000000    0.00000000
    8    0.05020383   -1.89398734   -1.57037341     25.95086677  -40.04090737  -25.20246959      0.00000000    0.00000000    0.00000000
    1   -0.86106080   -1.59323687   -1.23651637    -11.09004192   -2.07048682  -10.08743144      0.00000000    0.00000000    0.00000000
    1    0.53882887   -1.83772929   -0.65924354     11.91702042  -22.08370936   -9.35966859      0.00000000    0.00000000    0.00000000
    8   -0.06484314    7.11596439   -1.07209302     14.48524233   27.42182109   -5.47320448      0.00000000    0.00000000    0.00000000
    1   -0.72795396   -7.20287671   -0.30932441     -1.82493322  -18.55787292    7.88278213      0.00000000    0.00000000    0.00000000
    1    0.27499506    6.14389283   -0.99926344     -5.03434774  -15.68680410    5.88503603      0.00000000    0.00000000    0.00000000
    8    2.74818732    0.62945080    6.49673918      3.40418754   25.60589291   -5.47753640      0.00000000    0.00000000    0.00000000
    1    3.64434793    0.07990614    6.30812216      7.87857468  -13.17910766   -7.11168543      0.00000000    0.00000000    0.00000000
    1    2.20645591   -0.14106677    6.91283535     -8.45153445   -8.74117586   -2.31586684      0.00000000    0.00000000    0.00000000
    8    6.52445243    2.13749128    4.35793976    -34.12908886   35.75980854    2.76351088      0.00000000    0.00000000    0.00000000
    1    6.66072173    1.17139546    4.56078718      8.98518412  -11.83884011    2.99450262      0.00000000    0.00000000    0.00000000
    1    6.94795732    2.18932283    3.42897376     -1.55542516   -4.31512139   -8.78394934      0.00000000    0.00000000    0.00000000
    8    0.68544824    1.38697874    3.01227380     -2.63466738  -13.41809732   17.13063449      0.00000000    0.00000000    0.00000000
    1    0.70993355    1.76547717    2.05677028     -2.31602643    7.33158303   -9.61926268      0.00000000    0.00000000    0.00000000
    1    1.69394125    1.41250023    3.22855265     10.16650477   -2.82548002   -0.64395977      0.00000000    0.00000000    0.00000000
    8   -6.38385137    0.87276144   -0.67039328     20.42025382   13.95666695   10.17424665      0.00000000    0.00000000    0.00000000
    1    7.14887128    0.47188848   -0.93023821     -8.83488604   -5.93930831   -0.23521463      0.00000000    0.00000000    0.00000000
    1   -6.20655393    1.49664977   -1.46944524     -4.78003629   -5.00115968   -6.09493383      0.00000000    0.00000000    0.00000000
    8    0.18818069    0.08952925   -6.48599441     24.55469284    3.98190801   29.00578772      0.00000000    0.00000000    0.00000000
    1    0.08938154   -0.61410769    7.19773381     -9.54743682   -9.20777061  -13.77689841      0.00000000    0.00000000    0.00000000
    1   -0.77109131    0.50265151   -6.47865058    -11.84899444    1.28915750   -5.39594151      0.00000000    0.00000000    0.00000000
    8   -6.66196062    4.19578002   -1.34960309     11.34332056  -22.39007051   -1.46577083      0.00000000    0.00000000    0.00000000
    1    6.94778862    4.46443086   -0.77116264     -7.95794907   11.67848296    4.73862580      0.00000000    0.00000000    0.00000000
    1   -6.66370198    5.06699037   -1.87478567      0.87295029   10.39020036   -0.14567332      0.00000000    0.00000000    0.00000000
    8    0.88280103    6.85006521    2.19744715    -23.30937247   -4.47608726   -8.24600739      0.00000000    0.00000000    0.00000000
    1    1.76560508    6.86295673    1.65742588     -2.31449264  -15.39701252    5.89244016      0.00000000    0.00000000    0.00000000
    1    1.28016569    6.48550883    3.07336054      6.11656212   -4.67131026   11.88211066      0.00000000    0.00000000    0.00000000
    8   -6.05183682   -4.39443376    6.97011368     -1.41887441   13.69115660   17.95137192      0.00000000    0.00000000    0.00000000
    1   -6.25837493   -5.29114439    6.54714288      6.32116128  -16.58672939  -11.79721845      0.00000000    0.00000000    0.00000000
    1   -5.12788859   -4.19737022    6.51990972      4.37659660   -7.27141326   -9.64275303      0.00000000    0.00000000    0.00000000
    8   -5.30009304   -3.10425463   -5.07778883    -12.05923247   10.45986342   15.29990293      0.00000000    0.00000000    0.00000000
    1   -5.13508759   -2.29798279   -5.67373265    -10.97272231   -1.49916985   -3.78657523      0.00000000    0.00000000    0.00000000
    1   -5.12526124   -3.77454342   -5.86195361     -4.81948065   -7.54608733  -14.93385830      0.00000000    0.00000000    0.00000000
    8   -6.20946771   -1.14575007    2.74961754    -20.66479325   -5.82061429   10.25771941      0.00000000    0.00000000    0.00000000
    1   -5.58541032   -1.28115948    1.97671419      2.62260202    0.56562180  -12.68505328      0.00000000    0.00000000    0.00000000
    1   -5.61905131   -0.51142588    3.29894407      6.90692412    7.22972810    3.27874470      0.00000000    0.00000000    0.00000000
    8    4.59563843   -3.66734794   -6.55349585     -7.01477118   14.45538859    9.35971431      0.00000000    0.00000000    0.00000000
    1    3.82794559   -3.99116864   -5.95367844     -0.70713903   -1.89320080    1.04756258      0.00000000    0.00000000    0.00000000
    1    5.12928975   -4.51723591   -6.81019611      2.22815434   12.48512065   -9.49901184      0.00000000    0.00000000    0.00000000
    8   -5.87619457   -3.69205865   -2.45034435     19.70592386    0.97502196   22.80108637      0.00000000    0.00000000    0.00000000