 BEGIN_INFO
   #
   # This is a XCRYSDEN-Structure-File
   # aimed for Visualization of Fermi Surface
   #
   # Case: Tight-binding calculation
   #
   # Launch as: xcrysden --xsf HICOLM.XSF
   #
 END_INFO
 # estrutura final
CRYSTAL
PRIMVEC
      19.00000000       0.00000000       0.00000000
       0.00000000      19.00000000       0.00000000
       0.00000000       0.00000000      19.00000000
PRIMCOORD
  300    1
    8    5.29770164   -6.77702100    0.92931978     34.11823688  126.76807826   55.52600564      0.00000000    0.00000000    0.00000000
    1    4.72481957   -5.96561207    0.81360458     -1.01537076    4.16690648    2.94068169      0.00000000    0.00000000    0.00000000
    1    5.30418476   -7.57248880    1.53525304     -5.51100366  -15.51072296    4.44523738      0.00000000    0.00000000    0.00000000
    8    5.55985471    1.18871277   -3.55862560  -6653.59031427 2447.54802668 9778.68888866      0.00000000    0.00000000    0.00000000
    1    5.93786589    0.31093755   -3.85288170     34.41878930 -203.96549468 -122.61505277      0.00000000    0.00000000    0.00000000
    1    5.92623136    2.09429019   -3.34493373     20.43546528   48.61889274  -37.91747893      0.00000000    0.00000000    0.00000000
    8    2.38642097    1.12906475   -7.63525138      0.32726089  -18.25510907  -18.15553722      0.00000000    0.00000000    0.00000000
    1    2.11506787    1.52042076   -8.51455535      1.07608468    3.79287099    2.75186826      0.00000000    0.00000000    0.00000000
    1    3.19060199    0.65539171   -7.27623250     -0.12092805    4.37927138    5.89876993      0.00000000    0.00000000    0.00000000
    8   -3.19611367    4.07244240    5.76721490    -59.66144704  -67.36235497  207.51704868      0.00000000    0.00000000    0.00000000
    1   -2.40923473    3.50541925    6.01067577      1.76557975    5.73088198    4.55432860      0.00000000    0.00000000    0.00000000
    1   -4.05865583    3.93491753    5.28031315     10.76003346    0.32878952    0.32291805      0.00000000    0.00000000    0.00000000
    8   -2.50082698   -8.01093523   -3.98971455      3.13065843   -3.79085765   -2.67176874      0.00000000    0.00000000    0.00000000
    1   -1.83028299   -7.48908720   -3.46244657     -0.42885950    1.95427707    1.51739205      0.00000000    0.00000000    0.00000000
    1   -3.06480697   -7.84687127   -4.79902057     -1.92517934    2.95040503    0.38524385      0.00000000    0.00000000    0.00000000
    8    0.33362575   -3.60500138   -7.05920771   -136.38657470 -157.36761291  -38.80999136      0.00000000    0.00000000    0.00000000
    1    0.05140582   -4.19815534   -7.81318777      0.23662893    2.19141276   -1.62301677      0.00000000    0.00000000    0.00000000
    1    0.25147852   -2.63299443   -6.83916056      2.83344299    2.71596940  -13.21514795      0.00000000    0.00000000    0.00000000
    8    3.42218660   -1.49016953    7.31545466     18.35089495  -17.60450281   14.19261186      0.00000000    0.00000000    0.00000000
    1    2.95992340   -2.37631342    7.34753575      4.73013646    2.68903565   -5.57757320      0.00000000    0.00000000    0.00000000
    1    3.15494384   -0.53457446    7.43949065     -8.20900362    7.52298993   -2.46233170      0.00000000    0.00000000    0.00000000
    8   -6.43781015   -0.03311536    4.21806876     -0.75313584   -1.84257934   -7.90767899      0.00000000    0.00000000    0.00000000
    1   -6.95528615    0.82019264    4.15443281      1.31726268   -1.76264499    1.82286719      0.00000000    0.00000000    0.00000000
    1   -6.50322916   -0.87587340    4.75233869      0.23929440    1.82128282    3.75800710      0.00000000    0.00000000    0.00000000
    8    0.36097642    5.29841663    2.31288787  46529.16084051 2929.0752551529328.54313813      0.00000000    0.00000000    0.00000000
    1   -0.25585095    6.02172969    2.62322498    -54.03067385   -0.45190983    4.84172792      0.00000000    0.00000000    0.00000000
    1    0.28238648    4.48307203    1.73930039     15.90377865   35.25032264  -28.26155929      0.00000000    0.00000000    0.00000000
    8   -3.53015306    5.65886083   -5.21641917     -0.22250710    5.28137600   -6.44815987      0.00000000    0.00000000    0.00000000
    1   -4.46660507    6.00947681   -5.20673619      0.70888082    0.61850746    1.04482961      0.00000000    0.00000000    0.00000000
    1   -2.62610307    6.02794485   -5.43191416     -3.63827227   -1.41787113    1.28010409      0.00000000    0.00000000    0.00000000
    8   -5.10954704    0.87908363    1.40895289     16.11023918   -4.17666100    7.28473518      0.00000000    0.00000000    0.00000000
    1   -5.82769898    0.18332857    1.42113493      1.92588423   -0.42910035    2.65739020      0.00000000    0.00000000    0.00000000
    1   -4.43323208    1.22618373    2.05863488     -0.35887073   -6.63108370    0.69523105      0.00000000    0.00000000    0.00000000
    8    0.36437098   -7.25838385   -7.36123720     -3.54212379  -10.06544711   -2.32475968      0.00000000    0.00000000    0.00000000
    1   -0.01058799   -6.33135984   -7.36198331      2.55737736   -0.02192168    3.57444695      0.00000000    0.00000000    0.00000000
    1   -0.00991205   -8.18566984   -7.35700311      3.44160734   -2.50167889   -0.67504799      0.00000000    0.00000000    0.00000000
    8   -4.98790747    1.70608467    7.06127431  -2737.5562182815346.61192100 5098.93258265      0.00000000    0.00000000    0.00000000
    1   -4.04622437    1.42885777    6.87063098    -13.64299125  -25.09510586  -11.27570071      0.00000000    0.00000000    0.00000000
    1   -5.75994096    2.04703740    6.52491354      5.19323221   -5.14873024   -0.39346087      0.00000000    0.00000000    0.00000000
    8   -8.54330852   -4.22907342   -2.77751985     -0.67744559    0.37659236    1.18187037      0.00000000    0.00000000    0.00000000
    1   -9.41821649   -4.71037346   -2.83092894     -0.56876222    0.95120403    2.92042174      0.00000000    0.00000000    0.00000000
    1   -7.63467354   -4.42713337   -2.40993077      0.57681714   -1.12463610   -0.51287089      0.00000000    0.00000000    0.00000000
    8   -3.82959170   -0.00670298   -5.97988420      2.28349323   -6.21716525    0.49064460      0.00000000    0.00000000    0.00000000
    1   -4.80115771    0.06785997   -5.75523825     -3.79470599    4.17012088    1.70203324      0.00000000    0.00000000    0.00000000
    1   -3.09862171    0.62781205   -6.23096414     -2.32617093    1.51440132   -0.75059973      0.00000000    0.00000000    0.00000000
    8   -8.41819012   -0.03569298   -8.53691487     -3.83348375    3.92026977    4.50944901      0.00000000    0.00000000    0.00000000
    1   -8.51258813    0.95976702   -8.54769386      1.70094328    3.50696330    0.12379444      0.00000000    0.00000000    0.00000000
    1   -8.97884012   -0.81446398   -8.81825787      1.49192936   -0.55870674    0.18550853      0.00000000    0.00000000    0.00000000
    8    1.55412988   -6.85565730    5.85661451  ******************************************      0.00000000    0.00000000    0.00000000
    1    1.23768058   -6.12848394    6.46574997   -108.31845077   16.87227696   39.24927678      0.00000000    0.00000000    0.00000000
    1    2.42418633   -7.11507733    5.43748390     45.23361207   24.34743011  -53.26063989      0.00000000    0.00000000    0.00000000
    8    8.01391193    4.10439882    3.13048674    -15.86264517   -4.45772983   -2.37281668      0.00000000    0.00000000    0.00000000
    1    8.54770812    3.26114395    3.06763056      1.51127965   -2.82324362    0.24150157      0.00000000    0.00000000    0.00000000
    1    7.44398562    4.64286670    2.50983992     12.60970659    2.82638543   -4.35850844      0.00000000    0.00000000    0.00000000
    8   -3.05771968    4.94036414   -1.56459518      2.88954806   -0.75839029    5.98236373      0.00000000    0.00000000    0.00000000
    1   -2.74715963    5.67206514   -0.95785521     -3.24624286   -0.14119957   -5.45782055      0.00000000    0.00000000    0.00000000
    1   -3.04614975    3.94055014   -1.55026714      0.07191986   -0.73203972   -5.38979721      0.00000000    0.00000000    0.00000000
    8    1.02960124    0.18924328    5.83802204    519.08309974 3799.71096550-2534.23028422      0.00000000    0.00000000    0.00000000
    1    1.60288000    0.31907573    5.02903368      3.92303306   -1.98022353    3.30484329      0.00000000    0.00000000    0.00000000
    1    0.10027725   -0.13385062    6.01672488     16.17325049   -0.66323672   -0.47284766      0.00000000    0.00000000    0.00000000
    8    3.39595349    6.36033182    1.57997987   -792.53479079 3261.51391870 -414.79947227      0.00000000    0.00000000    0.00000000
    1    2.86529979    5.51637127    1.65810899     37.18014045  -98.60492889  -13.89896353      0.00000000    0.00000000    0.00000000
    1    4.36396567    6.59598999    1.49405269     34.09977745    8.32494875  -12.18485914      0.00000000    0.00000000    0.00000000
    8   -7.53302742    3.28029343    0.05209554  ******************************************      0.00000000    0.00000000    0.00000000
    1   -7.62462718    2.28543184    0.09481474     46.75411739    6.15213267   35.70852852      0.00000000    0.00000000    0.00000000
    1   -8.15853764    4.05847308   -0.00394267    -17.97353586    1.78895215    6.03212428      0.00000000    0.00000000    0.00000000
    8    1.75452134   -1.96058617   -6.61261546    126.30463139  152.51080859   37.69054341      0.00000000    0.00000000    0.00000000
    1    1.73045583   -1.52351904   -7.51170341      1.37352702   -0.86567948   -1.70050310      0.00000000    0.00000000    0.00000000
    1    1.07785699   -2.25835805   -5.93924777     12.52663493   -2.41294257   10.10942109      0.00000000    0.00000000    0.00000000
    8    0.36126681   -7.66407920    2.29320054     -2.96895340   -0.55161157   -6.98514374      0.00000000    0.00000000    0.00000000
    1   -0.04607032   -8.56081416    2.46614745      3.30074530   -0.18355204    4.48288364      0.00000000    0.00000000    0.00000000
    1    0.02866594   -6.72318816    2.22943258     -0.89108822   -2.85676650    2.01798220      0.00000000    0.00000000    0.00000000
    8   -2.27321796   -8.84883197   -9.41477304     -0.58978384    0.69417393    2.35944263      0.00000000    0.00000000    0.00000000
    1   -3.18077703   -8.71606202    9.18688695      1.13268030    0.73906729   -0.63366428      0.00000000    0.00000000    0.00000000
    1   -1.60810796   -8.27747297   -8.93399704      0.82678688    1.00434170   -5.48720196      0.00000000    0.00000000    0.00000000
    8   -7.78152480    7.96597122    1.98581406     -1.02659334    4.17611684   -1.46702903      0.00000000    0.00000000    0.00000000
    1   -8.48887874    7.33374616    1.66972905      0.64918844    1.50908634    2.31914474      0.00000000    0.00000000    0.00000000
    1   -6.81164979    7.90117032    2.22056906     -2.49602962   -2.90791592    0.80619578      0.00000000    0.00000000    0.00000000
    8   -6.81461522    2.82618972    0.68979814  ******************************************      0.00000000    0.00000000    0.00000000
    1   -6.19007426    2.82943565    1.47076211     -4.72845212    1.02638890  -10.99681187      0.00000000    0.00000000    0.00000000
    1   -7.12009785    3.49322841    0.01030767   -423.14677745 -232.03043246   45.38364867      0.00000000    0.00000000    0.00000000
    8   -6.83998044    4.32591978    5.13166992     10.83942026   -5.23515723   -4.68855174      0.00000000    0.00000000    0.00000000
    1   -7.50006644    3.57578478    5.09230197     -4.13895551    2.83097359    2.11747933      0.00000000    0.00000000    0.00000000
    1   -5.84714843    4.40651379    5.21974582     -1.48554820    4.96901717    5.49394407      0.00000000    0.00000000    0.00000000
    8    3.28969358   -6.87044637   -6.06341647    -42.39630735   -9.51525548  -95.23564891      0.00000000    0.00000000    0.00000000
    1    3.82284868   -6.07649036   -5.77127867     -9.06270793   -4.44033671    2.62622175      0.00000000    0.00000000    0.00000000
    1    2.47161659   -7.34601325   -5.74006829     -1.95479425   -0.13562650   -3.61683979      0.00000000    0.00000000    0.00000000
    8    4.94711359    3.04753960    3.61989574     38.61468187  -36.03941214  -64.81264855      0.00000000    0.00000000    0.00000000
    1    3.98585342    3.32311502    3.62227178      0.29863373    3.80884972    4.63141167      0.00000000    0.00000000    0.00000000
    1    5.82998730    3.51710314    3.61673256     -3.57111466  -23.99813140    9.12138423      0.00000000    0.00000000    0.00000000
    8    2.87386573   -3.30451614    2.87791523  ****************************11813.91158544      0.00000000    0.00000000    0.00000000
    1    3.73575267   -3.72756478    3.15746245      1.71767456   16.17392332   -4.80327317      0.00000000    0.00000000    0.00000000
    1    1.94123149   -3.62000764    2.70291223      8.61552692    4.63188476    1.01393267      0.00000000    0.00000000    0.00000000
    8    7.45468149    7.92890702    5.91739205     32.66284096   -9.13762496   26.30654145      0.00000000    0.00000000    0.00000000
    1    7.29595834    8.91185903    6.01001871      3.27969103   -1.76355194   13.90864670      0.00000000    0.00000000    0.00000000
    1    8.25263058    7.32621513    5.91514032      0.56633540   -4.91206488    1.05169364      0.00000000    0.00000000    0.00000000
    8    5.33477127    2.87208994    1.15122574   5285.99183833 1886.26264026 6463.33347314      0.00000000    0.00000000    0.00000000
    1    4.49494077    2.42303330    0.84626767    -12.58392109   54.88321614  -74.86433231      0.00000000    0.00000000    0.00000000
    1    5.56838420    3.59650726    1.79977129    -15.25161217  -20.40519738   -5.26281734      0.00000000    0.00000000    0.00000000
    8   -4.72353728    0.21529854    6.56835614   2752.28485118**************-5086.16051308      0.00000000    0.00000000    0.00000000
    1   -4.29234166   -0.59154169    6.16456753     -1.39897634    0.82034114    1.05279939      0.00000000    0.00000000    0.00000000
    1   -5.27762686    0.40501982    7.37888442      1.66093572   32.90986682    1.20480734      0.00000000    0.00000000    0.00000000
    8    4.24369914    3.79478481    5.72617886  18567.19566344**************-6040.69650443      0.00000000    0.00000000    0.00000000
    1    5.20807779    3.96827593    5.92578346     24.97617085   15.88388674   -3.56249935      0.00000000    0.00000000    0.00000000
    1    3.55668024    3.13009032    6.01969357     27.63141604  -48.35211274  100.85891144      0.00000000    0.00000000    0.00000000
    8    2.48872929    5.86284357   -6.50728289  31056.78301659**************-5202.77782934      0.00000000    0.00000000    0.00000000
    1    2.25319724    5.65211644   -5.55855463     36.35447834  -15.54190020   39.32733732      0.00000000    0.00000000    0.00000000
    1    2.02659669    5.80788186   -7.39236998    -10.22684543    3.24316104    9.88650323      0.00000000    0.00000000    0.00000000
    8   -2.07194987    6.03241141    8.23553074      0.53646209   -4.49774082    9.21338790      0.00000000    0.00000000    0.00000000
    1   -2.92629184    5.51818737    8.31063182     -4.40346388   -0.66532991   -3.60371050      0.00000000    0.00000000    0.00000000
    1   -1.09830486    5.80781446    8.19629270     -3.74981722    0.24217235   -1.16079969      0.00000000    0.00000000    0.00000000
    8    7.17434796    1.24743340    5.44153842  ******************************************      0.00000000    0.00000000    0.00000000
    1    7.59550271    1.60761194    4.60915078     -7.51261365   -6.85797486   14.26687526      0.00000000    0.00000000    0.00000000
    1    7.19120722    0.38005253    5.93886432    680.06212876  -26.44333132  320.18889063      0.00000000    0.00000000    0.00000000
    8    5.91823039    1.05150903    8.21729713     88.00900942 -337.14002780 -526.86600584      0.00000000    0.00000000    0.00000000
    1    6.08632963    1.92812910    8.66812491      8.08971576    9.48682059   30.14196062      0.00000000    0.00000000    0.00000000
    1    6.06400238    0.08788306    8.44122126      2.68614339    7.05214069   -0.78789724      0.00000000    0.00000000    0.00000000
    8    0.85245086   -1.26166905    6.80909778   -510.05263653-3811.59580731 2548.50846002      0.00000000    0.00000000    0.00000000
    1    1.37543989   -1.83955927    7.43559055      0.38444342    7.89466663   -2.51748910      0.00000000    0.00000000    0.00000000
    1    0.06981724   -1.38640593    6.19926895     10.71237751  -12.27722266    1.02475081      0.00000000    0.00000000    0.00000000
    8    9.49535804   -6.92113093   -6.64833900     -7.69021606   -2.85906026   -3.36431329      0.00000000    0.00000000    0.00000000
    1   -8.52807896   -7.12207807   -6.72523702      0.48290870    2.25337730    0.33684437      0.00000000    0.00000000    0.00000000
    1    8.76457904   -6.65292394   -7.27602700     -0.48392563   -0.60969578    0.21383856      0.00000000    0.00000000    0.00000000
    8   -8.41932721   -8.36944331    7.32139757     -1.62202680    3.11507911    2.00120042      0.00000000    0.00000000    0.00000000
    1   -8.19158213   -9.31145129    7.56781360     -0.44570112   -2.57639692   -1.52968761      0.00000000    0.00000000    0.00000000
    1   -8.04070127   -7.67414031    6.71052653      1.25459094   -2.22418026    1.08158590      0.00000000    0.00000000    0.00000000
    8   -4.70166230   -5.81635008    5.81228769      2.97513643   -0.18834963   -3.31233304      0.00000000    0.00000000    0.00000000
    1   -4.80926530   -6.79578308    5.64170566      0.56558232   -3.00521253    2.26708899      0.00000000    0.00000000    0.00000000
    1   -5.29423829   -5.01145507    5.78122568      1.48796015   -1.54406499    2.49357702      0.00000000    0.00000000    0.00000000
    8    2.28870381    2.77545368    5.48856032   -166.71146120 -132.18509917  -30.72751980      0.00000000    0.00000000    0.00000000
    1    1.41649477    3.00915694    5.91821106     -9.06103583    8.36467030    6.33388706      0.00000000    0.00000000    0.00000000
    1    3.21238816    3.15849491    5.48122742    -32.01738153   32.83648024 -106.43776285      0.00000000    0.00000000    0.00000000
    8    2.44040928    0.37300267    0.35132028  -6331.26504154 1729.96007136 1757.61580726      0.00000000    0.00000000    0.00000000
    1    2.79506126    1.21662781   -0.05177377      3.62475319    1.78414085    1.50494721      0.00000000    0.00000000    0.00000000
    1    1.60229782    0.09774528    0.82224345     -5.16206128    3.38982580    5.05714456      0.00000000    0.00000000    0.00000000
    8    1.65545576   -6.81214171   -0.37781618      3.75446978   16.58156991   -1.74329950      0.00000000    0.00000000    0.00000000
    1    1.31672286   -7.74712577   -0.27277735     -4.13439773    1.23389458    0.70720105      0.00000000    0.00000000    0.00000000
    1    1.75521470   -6.16377757   -1.13256006     -0.94976190   -5.22046843   -1.74919194      0.00000000    0.00000000    0.00000000
    8    1.97398194    2.98087217   -5.62650401   7224.80389791 2143.07542372**************      0.00000000    0.00000000    0.00000000
    1    2.01183079    2.50530308   -4.74765963    -52.34347877   40.37532297   56.57264694      0.00000000    0.00000000    0.00000000
    1    1.31560712    3.56596566   -6.09997561     10.97834384    6.68835104    5.69511976      0.00000000    0.00000000    0.00000000
    8    5.94835879    5.28788396    4.76504448     53.46279891   32.93361058  -24.40823292      0.00000000    0.00000000    0.00000000
    1    5.99986178    6.27716301    4.90157811      0.36776998    4.85697407   10.45268058      0.00000000    0.00000000    0.00000000
    1    6.00107985    4.66588367    3.98382471     -2.75556475   20.22890488   15.85285735      0.00000000    0.00000000    0.00000000
    8    6.01434893    2.88668527   -0.73833690   1131.23222117  210.49052851-1087.17385774      0.00000000    0.00000000    0.00000000
    1    5.01525699    2.85235097   -0.76289900    -27.86896334  -21.74995724   27.51305732      0.00000000    0.00000000    0.00000000
    1    6.76226996    2.37288193   -1.15855888     -7.38245746    3.10130243   -1.45479648      0.00000000    0.00000000    0.00000000
    8   -3.86815446   -3.31346095   -5.45506278      3.01041018   -7.54205508    0.60132564      0.00000000    0.00000000    0.00000000
    1   -4.29787348   -2.64198006   -6.05873588     -0.31976988    7.16257096    3.50389169      0.00000000    0.00000000    0.00000000
    1   -3.86434250   -3.49877983   -4.47240775      0.39484714    1.84865432    1.52919629      0.00000000    0.00000000    0.00000000
    8    3.67299866   -8.48007741    0.81491644    -59.79186153  -58.55526240   -0.37667024      0.00000000    0.00000000    0.00000000
    1    3.70756946   -7.50832338    0.58153853      2.10763043    6.71722224   -1.36005101      0.00000000    0.00000000    0.00000000
    1    2.95609180   -9.14278959    1.03130833     -5.21050949   -0.30690575    5.61782116      0.00000000    0.00000000    0.00000000
    8    4.02671124   -0.04407362   -0.11551865   1750.5235672424976.46079525**************      0.00000000    0.00000000    0.00000000
    1    4.50020299    0.48954363    0.58521208     22.68612161  -44.85075786  -46.66635491      0.00000000    0.00000000    0.00000000
    1    3.40266530    0.15420804   -0.87130778     -5.22882854  -16.01550513   12.85442704      0.00000000    0.00000000    0.00000000
    8    3.32531042    7.33382782   -4.97511820    609.71022997 1456.84470416 -205.96278049      0.00000000    0.00000000    0.00000000
    1    3.14557467    8.30799761   -5.11169771      5.83731740    5.75380479    1.53594711      0.00000000    0.00000000    0.00000000
    1    4.13653284    6.76274354   -4.84962269      8.26542179   13.42521275  -21.60816720      0.00000000    0.00000000    0.00000000
    8    7.43491239    7.97436190   -1.77360586      2.47999274   -4.47998495    8.63866032      0.00000000    0.00000000    0.00000000
    1    7.55317935    8.80839488   -1.23474781     -0.19153421    6.76068332   -2.19375109      0.00000000    0.00000000    0.00000000
    1    8.03757742    7.33485791   -2.25088583     -0.72882878    0.82734068   -5.53779387      0.00000000    0.00000000    0.00000000
    8   -3.09139265   -2.62488740    0.64090439    -22.42995866   12.43931994    8.30562173      0.00000000    0.00000000    0.00000000
    1   -2.23799381   -3.03041849    0.96835171      7.62342854   -0.77532820   -8.91958614      0.00000000    0.00000000    0.00000000
    1   -4.05720573   -2.67901722    0.89436309      2.62566613   -2.81063415    0.10532053      0.00000000    0.00000000    0.00000000
    8   -1.17524837    0.89831722    5.26567183    -71.13322107   10.27777146  -21.42524513      0.00000000    0.00000000    0.00000000
    1   -0.53403954    1.05825902    6.01616202     12.62225347   15.14675863    2.91950439      0.00000000    0.00000000    0.00000000
    1   -1.67885816    1.46792838    4.61614382     -0.47222277    3.96340137    1.25673062      0.00000000    0.00000000    0.00000000
    8   -0.91203821    5.03624245    1.70506389  ******************************************      0.00000000    0.00000000    0.00000000
    1   -1.36675888    5.23107942    0.83602101     -3.03105719    0.08295981   -1.18057746      0.00000000    0.00000000    0.00000000
    1   -0.47730999    4.24059946    2.12688187    -22.18976826    6.22596130   32.27456337      0.00000000    0.00000000    0.00000000
    8    6.03291970    2.58883765   -4.27737175   3135.38629412 9253.55603565-4683.39980657      0.00000000    0.00000000    0.00000000
    1    5.71465916    1.64109095   -4.29866817    -36.12663393  -78.19036726   75.69272163      0.00000000    0.00000000    0.00000000
    1    5.60339787    3.49184601   -4.27001397     -3.79782303    3.20731489   -3.25513972      0.00000000    0.00000000    0.00000000
    8    4.16810905   -0.93621573    1.05223254  -3025.40772168**************33982.46422433      0.00000000    0.00000000    0.00000000
    1    3.54247404   -1.65822625    1.34761399    -21.68299431   63.82857694    9.16718747      0.00000000    0.00000000    0.00000000
    1    4.31712227    0.02529360    1.28301445     -2.91710177  -71.63948908   16.15621375      0.00000000    0.00000000    0.00000000
    8    6.15260166    3.29575947   -8.68097389  35331.6707767369855.8486726022035.47642339      0.00000000    0.00000000    0.00000000
    1    5.33510393    2.72168142   -8.72676804     68.72362096 -133.66307482  -52.69904697      0.00000000    0.00000000    0.00000000
    1    6.34438660    4.26175785   -8.50767174     -2.00583333   -8.51203145    3.43972076      0.00000000    0.00000000    0.00000000
    8    1.20866311    6.62204871   -6.34084877  **************18483.64487199 4016.90498263      0.00000000    0.00000000    0.00000000
    1    2.09355677    7.07052936   -6.21517157     36.59752289  -30.16141222   -2.22545169      0.00000000    0.00000000    0.00000000
    1    0.24960723    6.87473535   -6.21306991      6.18033215    4.22194231   -3.93097727      0.00000000    0.00000000    0.00000000
    8    9.28854508    3.28721602   -2.97115686      2.46985300    3.77871306    2.25388581      0.00000000    0.00000000    0.00000000
    1    9.15335805    2.38417610   -2.56346769      0.81095989   -1.71280065   -6.88559866      0.00000000    0.00000000    0.00000000
    1    9.47717313    4.20872407   -2.63173303     -1.40389394   -3.15702422   -1.38670841      0.00000000    0.00000000    0.00000000
    8    0.98510944    0.36467174    2.45186001    317.13367833 -146.49812504  425.34767467      0.00000000    0.00000000    0.00000000
    1    0.05675825   -0.00687381    2.46112557     -7.00796355  -29.84142708   61.16204263      0.00000000    0.00000000    0.00000000
    1    1.90914012   -0.00587671    2.54582237      9.00652262    2.25440967    0.98401318      0.00000000    0.00000000    0.00000000
    8    8.25758419   -4.58669000    3.66244363  -7526.85877233 3400.91895607**************      0.00000000    0.00000000    0.00000000
    1    8.71869007   -5.32868373    3.17583015     -5.09892147    0.75395088    8.91380243      0.00000000    0.00000000    0.00000000
    1    7.37696899   -4.11819556    3.59175582      2.73984887   -5.32268631    4.08983623      0.00000000    0.00000000    0.00000000
    8   -9.45559012    6.94035592   -6.58040695     -4.16934492    2.66399989   -4.70193638      0.00000000    0.00000000    0.00000000
    1    9.38921287    7.01410807   -7.56551708     -2.19885848   -2.53922997    2.11909312      0.00000000    0.00000000    0.00000000
    1   -8.69411411    6.67223893   -5.99029395     -0.80828780   -2.05226677   -1.53941954      0.00000000    0.00000000    0.00000000
    8    2.62871926    5.60173256   -4.56639526   -467.61149012-1525.05350176 1354.60689484      0.00000000    0.00000000    0.00000000
    1    3.52316798    5.94999467   -4.28596650    -20.62164038    3.38985274    0.99259440      0.00000000    0.00000000    0.00000000
    1    1.70934601    5.98115712   -4.67011170     -8.73399614   17.61861534    8.55582434      0.00000000    0.00000000    0.00000000
    8    6.03364487   -7.95863463   -0.98620419     35.14868983  -48.09750415  -80.73906523      0.00000000    0.00000000    0.00000000
    1    6.04204378   -7.02133358   -0.63783232     -6.27146995    3.34057100   14.10961972      0.00000000    0.00000000    0.00000000
    1    5.57644596   -8.81331764   -0.74032805     -5.04501986    9.96326942    4.10225274      0.00000000    0.00000000    0.00000000
    8   -2.78666224    4.64458259    3.66951331     28.83115989   39.03080448 -204.37835703      0.00000000    0.00000000    0.00000000
    1   -1.83930320    4.73098741    3.36127338      2.05853056    9.39350602   -5.99809337      0.00000000    0.00000000    0.00000000
    1   -3.64173328    4.30318077    3.27930223      5.33876737    3.10806378   -0.23763900      0.00000000    0.00000000    0.00000000
    8    0.48687370   -6.62272623    5.99266296  ******************************************      0.00000000    0.00000000    0.00000000
    1   -0.26762235   -6.04028756    5.69022638      5.04176630  -13.84723553   -8.11043240      0.00000000    0.00000000    0.00000000
    1    1.48498917   -6.56187565    5.99810607    240.72451902 -984.24601226 -516.56740885      0.00000000    0.00000000    0.00000000
    8    4.39886842   -6.61827366   -4.01870803     42.66115989   19.72918001   89.51790019      0.00000000    0.00000000    0.00000000
    1    5.04108529   -6.32843960   -4.72830012      5.05025641   -5.47337397    6.77385421      0.00000000    0.00000000    0.00000000
    1    3.66119051   -6.18922370   -3.49744786      2.32491664   -5.42266270    0.34336730      0.00000000    0.00000000    0.00000000
    8    5.77087033   -0.42798269    1.07212507  ******************************************      0.00000000    0.00000000    0.00000000
    1    6.02447671    0.52380160    1.24462667      9.28284371  -12.75994769    1.54509301      0.00000000    0.00000000    0.00000000
    1    5.95994161   -1.10520786    0.36107911     88.01293197   63.35336489   55.48039106      0.00000000    0.00000000    0.00000000
    8    0.86617405   -0.03054184   -2.18989997     -1.65690358    7.32454953    9.26692644      0.00000000    0.00000000    0.00000000
    1    1.31948996    0.76808620   -1.79409094      3.97718542   -3.00424898   -2.69269690      0.00000000    0.00000000    0.00000000
    1   -0.03894191   -0.23184694   -2.56434299      0.45139026   -0.11665812   -1.98826684      0.00000000    0.00000000    0.00000000
    8   -1.47017528    7.83320135    2.85999531      3.80609481   -2.34904629   -6.46583111      0.00000000    0.00000000    0.00000000