 BEGIN_INFO
   #
   # This is a XCRYSDEN-Structure-File
   # aimed for Visualization of Fermi Surface
   #
   # Case: Tight-binding calculation
   #
   # Launch as: xcrysden --xsf HICOLM.XSF
   #
 END_INFO
 # estrutura final
CRYSTAL
PRIMVEC
      19.00000000       0.00000000       0.00000000
       0.00000000      19.00000000       0.00000000
       0.00000000       0.00000000      19.00000000
PRIMCOORD
  300    1
    8   -4.19340899    2.75231192   -8.55813796      6.83485708    4.00160169   -3.15670028      0.00000000    0.00000000    0.00000000
    1   -4.76629099    3.56372092   -8.67385296     -1.66570339   -3.02243136    4.07612484      0.00000000    0.00000000    0.00000000
    1   -4.18692599    1.95684392   -7.95220496     -4.18385326    2.83594993    1.15274459      0.00000000    0.00000000    0.00000000
    8   -4.14502432   -8.28388221    6.23387218    -17.59357291    1.08345382   14.66772100      0.00000000    0.00000000    0.00000000
    1   -3.76702032   -9.16165921    5.93961218      4.48670472    2.25017836   -0.73735846      0.00000000    0.00000000    0.00000000
    1   -3.77864132   -7.37830621    6.44755918      4.03413678   -2.79915059   -1.59995788      0.00000000    0.00000000    0.00000000
    8   -7.11382254   -8.37827199    1.85800607     -5.27836927   -0.49879783    3.94735157      0.00000000    0.00000000    0.00000000
    1   -7.38517554   -7.98691599    0.97870207      4.79220925   -1.98650741    0.08210475      0.00000000    0.00000000    0.00000000
    1   -6.30964154   -8.85194499    2.21702507      0.42980871    1.55571626   -4.85506857      0.00000000    0.00000000    0.00000000
    8    6.29360705   -5.44191041   -3.68868107     -0.57362526    5.07050865    7.87537536      0.00000000    0.00000000    0.00000000
    1    7.08048605   -6.00893341   -3.44522008     -3.61537690   -2.34981661   -2.61523367      0.00000000    0.00000000    0.00000000
    1    5.43106505   -5.57943541   -4.17558307      3.44955595   -4.20719475    0.32401369      0.00000000    0.00000000    0.00000000
    8    6.99954368    1.48835551    5.51036659     -0.98877400   -6.85584062    2.78474490      0.00000000    0.00000000    0.00000000
    1    7.67008768    2.01020352    6.03763459     -1.97346231    2.70974807   -4.08263002      0.00000000    0.00000000    0.00000000
    1    6.43556368    1.65241952    4.70106059      2.96276633    4.15169033    1.28083829      0.00000000    0.00000000    0.00000000
    8   -9.19515240    5.86204091    2.43341227     -0.00110509   -7.84568146    4.36348479      0.00000000    0.00000000    0.00000000
    1   -9.47737240    5.26888692    1.67943227     -1.39566268    5.17141359   -0.72021605      0.00000000    0.00000000    0.00000000
    1   -9.27729940    6.83404792    2.65345927     -2.17225726   -1.27865192   -5.07664083      0.00000000    0.00000000    0.00000000
    8   -6.07107560    8.00631866   -2.18120418      8.23033578   -1.21130870   -1.01717162      0.00000000    0.00000000    0.00000000
    1   -6.53333861    7.12017466   -2.14912318     -2.96948255    4.20348908    0.70179689      0.00000000    0.00000000    0.00000000
    1   -6.33831861    8.96191366   -2.05716818     -4.23434058   -3.12081380    0.31833242      0.00000000    0.00000000    0.00000000
    8    3.05766556    9.46561812   -5.28033852      5.62336336   -0.29405141   -3.61779184      0.00000000    0.00000000    0.00000000
    1    2.54018956   -8.68107388   -5.34397452     -1.80637083   -3.46142539    3.50929680      0.00000000    0.00000000    0.00000000
    1    2.99224656    8.62286012   -4.74606852     -3.67362222    3.57599553    1.17940643      0.00000000    0.00000000    0.00000000
    8   -9.02711553   -4.47649858   -6.84806510      9.57467412  -15.17705936   17.42980138      0.00000000    0.00000000    0.00000000
    1    9.35605447   -3.75318558   -6.53773311     -3.05633137   -3.44214290   -2.76139939      0.00000000    0.00000000    0.00000000
    1   -9.10569953   -5.29184058   -7.42165711     -3.88466570    2.78666460    0.40573302      0.00000000    0.00000000    0.00000000
    8    5.97066170   -3.84092953    4.28255614      0.44784327   -7.03979218    1.86121679      0.00000000    0.00000000    0.00000000
    1    5.03420970   -3.49031353    4.29223914      3.50016368    3.52726839   -1.40964677      0.00000000    0.00000000    0.00000000
    1    6.87471170   -3.47184553    4.06706114     -3.92963329    3.46529388   -0.48922557      0.00000000    0.00000000    0.00000000
    8    4.28386541   -8.65318549   -8.27556443     -6.05202133    1.60522621  -17.73761761      0.00000000    0.00000000    0.00000000
    1    3.56571342   -9.34894049   -8.26338243      2.88757818    0.46752358    4.90880150      0.00000000    0.00000000    0.00000000
    1    4.96018041   -8.30608549   -7.62588243     -2.28633059   -3.97660715    4.47671052      0.00000000    0.00000000    0.00000000
    8   -9.13688091    2.24101551    2.13848026      7.16720208   -0.09319885   -0.07944986      0.00000000    0.00000000    0.00000000
    1    9.48816008    3.16803951    2.13773426     -3.60807772   -3.71392352    0.29764137      0.00000000    0.00000000    0.00000000
    1    9.48883608    1.31372951    2.14271426     -3.60090633    3.48594629    0.18086812      0.00000000    0.00000000    0.00000000
    8    4.46065281   -7.52263610   -2.34600082     -4.06849152   10.42890073   11.15820510      0.00000000    0.00000000    0.00000000
    1    5.40233481   -7.79987110   -2.53663782     -2.64575760    1.12683039   -4.48490442      0.00000000    0.00000000    0.00000000
    1    3.68862182   -7.18168911   -2.88236882      4.36675805   -1.00820523   -2.83339227      0.00000000    0.00000000    0.00000000
    8    0.95648625    5.27123917    6.72248647     -0.36709459    6.72666244   -3.08805780      0.00000000    0.00000000    0.00000000
    1    0.08157825    4.78993917    6.66907747      3.75717334   -2.83692994    2.36550379      0.00000000    0.00000000    0.00000000
    1    1.86512125    5.07317917    7.09007547     -3.40275945   -3.91163979    0.70772503      0.00000000    0.00000000    0.00000000
    8    5.67111051    9.49175620    3.51977265      2.47044706   -7.21709445    0.14006914      0.00000000    0.00000000    0.00000000
    1    4.69954451   -9.43368079    3.74441865      2.11574100    4.77224730   -1.08194294      0.00000000    0.00000000    0.00000000
    1    6.40208051   -8.87372879    3.26869265     -4.65643770    2.45608295    0.80887684      0.00000000    0.00000000    0.00000000
    8    1.08120770    9.46342521    0.96081784      6.46951952   -2.27532889    2.37536649      0.00000000    0.00000000    0.00000000
    1    0.98680970   -8.54111479    0.95003883     -4.18739273   -2.40217338   -1.95699363      0.00000000    0.00000000    0.00000000
    1    0.52055770    8.68465421    0.67947484     -2.29715990    4.66560614   -0.85779964      0.00000000    0.00000000    0.00000000
    8   -6.89969093    1.49566074   -2.83267810     -5.52512522   -4.43965092   -1.78429726      0.00000000    0.00000000    0.00000000
    1   -7.21777293    2.22228274   -2.22373510      5.14515667    0.20297484   -1.07211094      0.00000000    0.00000000    0.00000000
    1   -6.02890693    1.23768874   -3.25119109      0.36866766    4.17252439    2.90212812      0.00000000    0.00000000    0.00000000
    8   -1.48942711   -5.39703560   -6.37038764     -0.20045920    2.76059381    6.57381656      0.00000000    0.00000000    0.00000000
    1   -0.95563111   -6.24029060   -6.43324365     -2.19048417    1.32057463   -4.57683067      0.00000000    0.00000000    0.00000000
    1   -2.05935311   -4.85856760   -6.99103465      2.61117386   -4.08205679   -2.46651809      0.00000000    0.00000000    0.00000000
    8    6.44314006   -4.55998482    7.93787868     -3.02507864    2.58410177   -5.69451165      0.00000000    0.00000000    0.00000000
    1    6.75370006   -3.82828383    8.54461868      0.80907569   -4.65005114    1.59192439      0.00000000    0.00000000    0.00000000
    1    6.45471006   -5.55979882    7.95220668      2.16751395    2.10430059    4.08350686      0.00000000    0.00000000    0.00000000
    8   -8.43109588   -9.13978110   -3.77402397      7.35257641   10.66677082    0.65105774      0.00000000    0.00000000    0.00000000
    1   -7.85781888   -9.00995110   -4.58301397     -4.69816644   -1.62970494   -1.07489726      0.00000000    0.00000000    0.00000000
    1   -9.36041888    9.53712390   -3.59531798      1.76371788   -0.61285447   -5.40318193      0.00000000    0.00000000    0.00000000
    8   -5.97980082   -3.00294186   -7.93764675      1.38626325   11.61724128    4.23188455      0.00000000    0.00000000    0.00000000
    1   -6.51045382   -3.84690286   -7.85951775      4.04768329   -1.96956293   -0.27465103      0.00000000    0.00000000    0.00000000
    1   -5.01178882   -2.76728286   -8.02357375      0.09603931   -4.75773900   -0.24113531      0.00000000    0.00000000    0.00000000
    8   -0.66547452   -4.44892301  -11.59718696      5.19062909   11.94285122    4.67256869      0.00000000    0.00000000    0.00000000
    1   -0.75422253   -5.44399801  -11.55343097     -5.63340690    1.37222344   -0.16655652      0.00000000    0.00000000    0.00000000
    1   -1.29326752   -3.67251601  -11.65227797     -2.44570069   -5.51217924    0.10477660      0.00000000    0.00000000    0.00000000
    8   -7.72001274    7.57237215    2.89582692     10.00706886    2.72132020    3.25348706      0.00000000    0.00000000    0.00000000
    1   -7.74407874    8.00943915    1.99673892     -4.69248578   -0.65022792    1.99971656      0.00000000    0.00000000    0.00000000
    1   -8.39667674    7.27460015    3.56919492     -1.72327424    1.97514624   -3.85736550      0.00000000    0.00000000    0.00000000
    8   -9.13973888    1.83488253   -7.20768297      7.11451853   -0.58741781   -1.21155031      0.00000000    0.00000000    0.00000000
    1    9.45292412    0.93814753   -7.03473597     -3.35326113    3.86211758    0.05066547      0.00000000    0.00000000    0.00000000
    1   -9.47233988    2.77577353   -7.27145097     -3.76394026   -3.48525657    1.01944063      0.00000000    0.00000000    0.00000000
    8    7.22664226    0.65153406    0.08690703      2.36097761   -6.86450341   -0.54400471      0.00000000    0.00000000    0.00000000
    1    6.31908326    0.78430406   -0.31143296      2.01692056    4.30765699    2.08278982      0.00000000    0.00000000    0.00000000
    1    7.89175226    1.22289306    0.56768303     -4.35090866    2.62190008   -1.52907124      0.00000000    0.00000000    0.00000000
    8    1.71831541   -1.53331478   -7.51402605     -2.60602942    6.96537360    0.82672723      0.00000000    0.00000000    0.00000000
    1    1.01096141   -2.16553979   -7.83011105      4.66292206   -2.34909436    0.69703851      0.00000000    0.00000000    0.00000000
    1    2.68819041   -1.59811579   -7.27927105     -2.05876387   -4.63897357   -1.50814162      0.00000000    0.00000000    0.00000000
    8    5.37060593   -8.30713091   -6.41843545      2.80626404   -4.12137420    7.01294987      0.00000000    0.00000000    0.00000000
    1    5.99570293   -8.29955891   -5.63794645     -0.55705028    4.38593784   -2.22945920      0.00000000    0.00000000    0.00000000
    1    5.06223493   -7.64300991   11.90052255      3.38390034    1.81408841    3.44170274      0.00000000    0.00000000    0.00000000
    8    2.66101765   -5.17553620   -4.36916501     -3.10835851    6.34459312   -0.60039820      0.00000000    0.00000000    0.00000000
    1    2.00093165   -5.92567120   -4.40853301      4.81048135   -1.52128591    0.54349893      0.00000000    0.00000000    0.00000000
    1    3.65384965   -5.09494220   -4.28108901     -1.80554407   -4.71837006    0.12961087      0.00000000    0.00000000    0.00000000
    8   -6.22024865    2.62771572    3.41417489      1.45720782   -3.37932997   -9.17686370      0.00000000    0.00000000    0.00000000
    1   -5.68709365    3.42167172    3.70631289     -4.40893653   -1.12679199    3.19352265      0.00000000    0.00000000    0.00000000
    1   -7.03832565    2.15214872    3.73752289      1.23743235    4.17130304    2.87062173      0.00000000    0.00000000    0.00000000
    8   -4.54249756   -6.46760256   -5.90476354      2.03877961   -9.65544130   -2.31079175      0.00000000    0.00000000    0.00000000
    1   -5.50375756   -6.19202656   -5.90238754      3.26056508    4.22461259    0.22273417      0.00000000    0.00000000    0.00000000
    1   -3.65962356   -5.99803956   -5.90792654     -4.32551417    2.19862817    0.75737163      0.00000000    0.00000000    0.00000000
    8   -6.80811325    5.80036633   -6.56450528     -8.14010376   -5.17736556   -3.51798927      0.00000000    0.00000000    0.00000000
    1   -5.94621824    5.37733133   -6.28496228     -2.71415143   -2.77163188   -0.43509045      0.00000000    0.00000000    0.00000000
    1   -7.74074224    5.48485933   -6.73950828      2.98430062   -3.67729604    1.29314324      0.00000000    0.00000000    0.00000000
    8   -2.03812717   -1.57262665   -3.57691358     -5.21951194   -3.94813702   -0.06860823      0.00000000    0.00000000    0.00000000
    1   -2.19685017   -0.58967465   -3.48428658      5.16333154   -1.32112842    0.80705390      0.00000000    0.00000000    0.00000000
    1   -1.24017817   -2.17531865   -3.57916558      1.30151503    4.90539099    0.68183750      0.00000000    0.00000000    0.00000000
    8   -3.98168792   -6.64639384   -8.15109289     20.41270842  -13.09128339    3.45695926      0.00000000    0.00000000    0.00000000
    1   -4.82151393   -7.09545284   -8.45605989     -0.91720205    4.78339231    3.30693718      0.00000000    0.00000000    0.00000000
    1   -3.74808393   -5.92197584   -7.50254489     -5.85803376   -2.47705549   -0.46135719      0.00000000    0.00000000    0.00000000
    8    4.82708813   -9.55616012   -3.02314032      2.56590605   -5.07093783   -8.41924541      0.00000000    0.00000000    0.00000000
    1    5.25827913    8.63699088   -3.42691631     -2.63041398   -1.00043724    4.45451144      0.00000000    0.00000000    0.00000000
    1    4.27299913   -9.36642312   -2.21261531      1.26375285   -4.51051903   -0.22841060      0.00000000    0.00000000    0.00000000
    8   -5.07392597   -5.94791572   -3.77807049      3.01945396   -2.29668159    1.50573150      0.00000000    0.00000000    0.00000000
    1   -4.10954997   -5.77442072   -3.57845649     -1.22735384   -3.97717955    2.43814366      0.00000000    0.00000000    0.00000000
    1   -5.76094997   -6.61260172   -3.48454849      6.08291795   -2.65102379    4.08105172      0.00000000    0.00000000    0.00000000
    8   -6.72635993   -3.80105760    2.83520127     17.03847367   -2.67208726  -11.14316529      0.00000000    0.00000000    0.00000000
    1   -6.96189493   -4.01177360    3.78393127     -3.78083823   -1.37089250   -1.73429947      0.00000000    0.00000000    0.00000000
    1   -7.18849793   -3.85600760    1.95011627     -3.00813100   -1.63016034    3.89457767      0.00000000    0.00000000    0.00000000
    8    7.42942578   -3.46757889   -1.26213000     -0.95111917    7.26580060    0.01367237      0.00000000    0.00000000    0.00000000
    1    6.57508378   -3.98180289   -1.18702900      4.09760770   -3.14639279   -0.28433440      0.00000000    0.00000000    0.00000000
    1    8.40307078   -3.69217589   -1.30136800     -3.32112846   -4.17085815    0.40215415      0.00000000    0.00000000    0.00000000
    8   -2.49227877   -7.82295797   -4.37559072     -5.58807970    9.51618400   -0.20025277      0.00000000    0.00000000    0.00000000
    1   -2.07077277   -7.46332097   -5.20803472      1.11233189   -5.14244126    1.31497253      0.00000000    0.00000000    0.00000000
    1   -2.47574077   -8.69006097   -3.87776972      3.73811120   -0.64365521   -3.38150261      0.00000000    0.00000000    0.00000000
    8   -3.54608866   -8.51596638   -1.41776422     -0.30036129   -4.41156028  -17.77152782      0.00000000    0.00000000    0.00000000
    1   -3.37798966   -7.63934638   -0.96693621      1.54171468   -3.91230802    3.59871485      0.00000000    0.00000000    0.00000000
    1   -3.40031666   -9.47959238   -1.19384021      1.63479887    3.50185182    3.91649959      0.00000000    0.00000000    0.00000000
    8   -8.67890435    8.06126094   -2.57310887     -0.06623513   -2.95697111    6.34062446      0.00000000    0.00000000    0.00000000
    1   -8.15591635    7.48336894   -1.94661687     -4.02147659   -2.29738225   -2.44671214      0.00000000    0.00000000    0.00000000
    1   -9.46153735    7.93652594   -3.18293887      1.49949021   -4.56284774    2.56521015      0.00000000    0.00000000    0.00000000
    8   -0.00467387    2.57895048    2.85178738     -2.42191282   -0.64874553    6.94716406      0.00000000    0.00000000    0.00000000
    1    0.97188913    2.37800348    2.77488937     -2.21213813    1.27677047   -4.55831691      0.00000000    0.00000000    0.00000000
    1   -0.73545287    2.84715748    2.22409938      4.63349022   -0.62534490   -2.38529261      0.00000000    0.00000000    0.00000000
    8    1.08037486    1.13100476   -2.17898671     -6.01028551    2.50249342    3.51986146      0.00000000    0.00000000    0.00000000
    1    1.30811986    0.18899676   -1.93257071      3.30411799    2.03173823   -3.50318704      0.00000000    0.00000000    0.00000000
    1    1.45900086    1.82630776   -2.78985771      2.71318573   -4.54481618   -0.03695619      0.00000000    0.00000000    0.00000000
    8    4.79953052    3.68413415   -3.68825587      7.07147135    1.79488477    1.89731774      0.00000000    0.00000000    0.00000000
    1    4.69192752    2.70470115   -3.85883787     -4.43826002    2.60466369   -0.66729272      0.00000000    0.00000000    0.00000000
    1    4.20695452    4.48902915   -3.71931787     -2.55290777   -4.40291547   -1.26926766      0.00000000    0.00000000    0.00000000
    8   -7.23847301   -6.74349011   -4.01631500     -3.73613101   -8.23257303   -4.87260015      0.00000000    0.00000000    0.00000000
    1   -8.11068101   -6.50978711   -3.58666200      3.45159725    3.68454982    1.47982386      0.00000000    0.00000000    0.00000000
    1   -6.31478901   -6.36044811   -4.02365100     -3.79888185    4.28548582    0.87284286      0.00000000    0.00000000    0.00000000
    8   -7.25803265   -9.07947294   -9.08560113     -3.30489860   -3.31795054    1.06090518      0.00000000    0.00000000    0.00000000
    1   -6.90337665   -8.23584994    9.51130387     -4.62425936    0.71000124    1.92508964      0.00000000    0.00000000    0.00000000
    1   -8.09614565   -9.35472594   -8.61467813     -0.57620183    5.29617584   -0.84299433      0.00000000    0.00000000    0.00000000
    8   -7.84422384    2.69089256    9.12084870      2.40086573    3.30209529    6.17779606      0.00000000    0.00000000    0.00000000
    1   -8.18295684    1.75590856    9.22588770     -0.33264100    1.66989589   -4.78793995      0.00000000    0.00000000    0.00000000
    1   -7.74446484    3.33925656    8.36610470     -2.08821121   -4.66823585   -1.51765258      0.00000000    0.00000000    0.00000000
    8   -7.39997369   -6.48078315    3.61473626     11.00828640    0.66749050  -14.56087745      0.00000000    0.00000000    0.00000000
    1   -7.36211669   -6.95635415    4.49357926     -4.81532545    3.13279431    0.26707238      0.00000000    0.00000000    0.00000000
    1   -8.05835369   -5.89569015    3.14127126     -1.38227345   -1.48122402    4.87160128      0.00000000    0.00000000    0.00000000
    8   -3.54190604   -4.20348426   -4.74063592      0.29831524   -2.36084636    5.48737986      0.00000000    0.00000000    0.00000000
    1   -3.49040304   -3.21420526   -4.60410192      0.62163225   -1.28872128   -4.58902553      0.00000000    0.00000000    0.00000000
    1   -3.48918504   -4.82548426   -5.52185592      0.41766821    5.68100341   -0.54094057      0.00000000    0.00000000    0.00000000
    8   -3.38610381   -6.59552415    8.66337896     10.59056277    6.81279230   -4.29463563      0.00000000    0.00000000    0.00000000
    1   -4.38519581   -6.62985815    8.63881896      1.48770006   -4.19741307   -2.56957736      0.00000000    0.00000000    0.00000000
    1   -2.63818381   -7.10932815    8.24315596     -4.96220765   -1.66603532   -1.41040787      0.00000000    0.00000000    0.00000000
    8    5.63224882    6.18461652    4.04507801      4.25233087   -5.08500643   -3.70377624      0.00000000    0.00000000    0.00000000
    1    5.20252982    6.85609752    3.44140501     -1.18151510    0.90062819    5.02999567      0.00000000    0.00000000    0.00000000
    1    5.63606082    5.99929752    5.02773301     -2.98291797    4.21182224   -1.30949495      0.00000000    0.00000000    0.00000000
    8   -5.83962387    1.00980091   -8.68515311      4.91887657   -3.97816780    0.24419266      0.00000000    0.00000000    0.00000000
    1   -5.80505287    1.98155491   -8.91853111     -4.86588426   -1.45828977    0.77027266      0.00000000    0.00000000    0.00000000
    1   -6.55653087    0.34708891   -8.46876111     -2.02308577    4.80526244   -0.73422353      0.00000000    0.00000000    0.00000000
    8   -5.28346295    9.68158397    8.94472332     11.71776543    0.05238122  -20.11102773      0.00000000    0.00000000    0.00000000
    1   -4.80996795   -8.78482303   -9.35452968     -1.72612002    1.63113273   -3.72081878      0.00000000    0.00000000    0.00000000
    1   -5.90751795   -9.12010903    8.18894832      1.55611423    4.04728277    2.48600708      0.00000000    0.00000000    0.00000000
    8   -6.12275432   -2.03637537    4.51006583     -2.64589839    5.46429454   -0.55106285      0.00000000    0.00000000    0.00000000
    1   -6.30248932   -1.06220537    4.37348683      5.32675468   -0.96322200    0.48318488      0.00000000    0.00000000    0.00000000
    1   -5.31153232   -2.60746037    4.63556083      1.31449038    5.37528659   -1.08343689      0.00000000    0.00000000    0.00000000
    8   -2.06559030   -1.52718848    7.72773994     -7.17059492   -2.15981203   -0.38982736      0.00000000    0.00000000    0.00000000
    1   -1.94732330   -0.69315548    8.26659794      4.54243174   -1.73613166   -1.80948729      0.00000000    0.00000000    0.00000000
    1   -1.46292530   -2.16669248    7.25045994      2.67443712    4.45301220    2.22180022      0.00000000    0.00000000    0.00000000
    8    6.40343821    6.87620631   -8.85823789      0.29741477    4.69136716   -5.58000597      0.00000000    0.00000000    0.00000000
    1    7.25683721    6.47067531   -8.53079089     -3.96535816   -1.61605203    2.44088312      0.00000000    0.00000000    0.00000000
    1    5.43762521    6.82207631   -8.60477889      3.15125315   -2.93935745    3.05955130      0.00000000    0.00000000    0.00000000
    8    8.30174167   -8.59947353   -4.23920707     -4.83705832   -6.92503071   -1.67874452      0.00000000    0.00000000    0.00000000
    1    8.94295067   -8.43953152   -3.48871707     -1.26573472    5.24826844   -2.13431117      0.00000000    0.00000000    0.00000000
    1    7.79813167   -8.02986252   -4.88873507      3.16923056    2.87027116    3.34806408      0.00000000    0.00000000    0.00000000
    8    8.19277847   -4.51824682   -8.01662652    -11.99182222    5.60306703   -4.48526767      0.00000000    0.00000000    0.00000000
    1    7.73808147   -4.32344882   -8.88569052      1.63352210   -5.03804602    0.44987362      0.00000000    0.00000000    0.00000000
    1    8.62753147   -5.31385982   -7.59477752     -2.38965675   -0.98285214   -4.88553509      0.00000000    0.00000000    0.00000000
    8   -3.36243509   -6.65601561    5.07437541     12.63812470   11.29310545   -6.63167472      0.00000000    0.00000000    0.00000000
    1   -3.68068609   -7.60376561    5.05308341     -4.49378953    2.68155259    0.38542604      0.00000000    0.00000000    0.00000000
    1   -3.79196609   -5.75301161    5.08173341     -3.57592638   -3.96781272   -0.33499319      0.00000000    0.00000000    0.00000000
    8   -5.51532001    8.20203533   -8.57293020      1.93292219  -19.80315272  -16.79812008      0.00000000    0.00000000    0.00000000
    1   -6.14097901    7.48005033   -8.27753719     -2.10099315    4.98162024    1.17545320      0.00000000    0.00000000    0.00000000
    1   -5.36628901   -9.83645067   -8.34217919     -5.56966675   -3.12482510    3.99464128      0.00000000    0.00000000    0.00000000
    8   -3.16418722   -5.85129825    0.92216833     13.33579285    8.98533562    1.64876273      0.00000000    0.00000000    0.00000000
    1   -3.98163023   -6.42545225    0.87634933     -1.17675033    3.55619882    0.82730055      0.00000000    0.00000000    0.00000000
    1   -2.97249723   -4.88528225    1.09547733     -5.11972850   -1.39984047    0.27525235      0.00000000    0.00000000    0.00000000
    8   -8.58320764   -2.71139218    3.19981983     -9.94493934   -1.45284555   -0.73014009      0.00000000    0.00000000    0.00000000
    1   -7.69829764   -2.26294118    3.32548783     -3.17583460    2.74590282    1.27567940      0.00000000    0.00000000    0.00000000
    1   -9.54225364   -2.45867418    3.32761083      3.43272570    4.10501427    1.12205424      0.00000000    0.00000000    0.00000000
    8   -0.17822929   -6.35719840    6.46487933      1.44574057   -9.89789314  -11.12610554      0.00000000    0.00000000    0.00000000
    1   -0.31341629   -7.26023840    6.87256833      1.05703895    3.54948141    3.26773892      0.00000000    0.00000000    0.00000000
    1    0.01039871   -5.43569040    6.80430333      0.35471248   -1.92026936    3.25656812      0.00000000    0.00000000    0.00000000
    8   -8.47440252   -9.15765411   -6.97920414      3.07790563    5.04469296    6.29084181      0.00000000    0.00000000    0.00000000
    1   -9.40275352    9.47079989   -6.96993714      3.81066984   -4.56715358    2.44001991      0.00000000    0.00000000    0.00000000
    1   -7.55037152    9.47179789   -6.88524314     -3.27613171   -3.61950892   -0.11078453      0.00000000    0.00000000    0.00000000
    8   -1.36553072    4.97156939   -6.10209690     -0.69312529    5.24084424   -5.40982185      0.00000000    0.00000000    0.00000000
    1   -0.90442272    4.22957339   -6.58870490     -4.83740812    1.05912481   -1.73028614      0.00000000    0.00000000    0.00000000
    1   -2.24614872    5.44005839   -6.17278590      0.65828702   -3.85749509   -3.44769320      0.00000000    0.00000000    0.00000000
    8    0.04426760   -2.55896534    2.91919322     -5.98265712    2.02044773    3.81895272      0.00000000    0.00000000    0.00000000
    1   -0.11092940   -2.48521334    1.93408322      4.83487056   -1.67945195    1.24475880      0.00000000    0.00000000    0.00000000
    1    0.80574360   -2.82708234    3.50930621      1.14454065   -0.34753552   -5.06377575      0.00000000    0.00000000    0.00000000
    8   -6.92120231   -4.02974864    5.05943570     -3.45664472  -16.48271525    7.34671287      0.00000000    0.00000000    0.00000000
    1   -6.02675331   -3.68148664    5.33986370     -4.15838708    3.85603441    0.17634868      0.00000000    0.00000000    0.00000000
    1   -7.84057531   -3.65032364    4.95571870      3.28780182    3.87674409    1.60364699      0.00000000    0.00000000    0.00000000
    8   -3.45729962    1.52865433    8.49431875      5.69916133   -2.63809847   -8.57872435      0.00000000    0.00000000    0.00000000
    1   -3.44890062    2.46595533    8.84269076     -3.41466277   -3.13775547    3.37847805      0.00000000    0.00000000    0.00000000
    1   -3.91449862    0.67397134    8.74019476     -1.33437671    4.24387110    3.20175800      0.00000000    0.00000000    0.00000000
    8    6.71722167   -4.84775347   -5.87042082     -0.59349203    3.30820232    2.14558135      0.00000000    0.00000000    0.00000000
    1    7.66458067   -4.76134847   -6.17866082     -3.32417886   -1.70742027   -3.84888522      0.00000000    0.00000000    0.00000000
    1    5.86215068   -5.18915547   -6.26063182      4.22659788   -0.16477093   -3.34426513      0.00000000    0.00000000    0.00000000
    8  -10.33683051    3.15637592   -3.33867192     -2.58538711   -6.32309170    2.94934699      0.00000000    0.00000000    0.00000000
    1    7.91004049    3.74017393   -3.64189392      4.67277448    2.00385763   -0.89331399      0.00000000    0.00000000    0.00000000
    1   -9.33860151    3.21526593   -3.33252692     -2.22250848    4.04595882   -2.18744737      0.00000000    0.00000000    0.00000000
    8   -5.09078113    2.88693941    5.50169954      2.34891580   -6.30485097    4.66937242      0.00000000    0.00000000    0.00000000
    1   -4.44856413    3.17677341    4.79210754     -3.00218155    3.53636027    1.68786478      0.00000000    0.00000000    0.00000000
    1   -5.82845913    3.31598941    6.02295954      2.37638436    3.17050229   -3.37295091      0.00000000    0.00000000    0.00000000
    8   -3.88236302    9.55548540   -8.04487286     -2.88516070   12.76006688   18.17630530      0.00000000    0.00000000    0.00000000
    1   -3.62841902   -8.49277260   -7.87263486      2.46321860   -1.42465195   -4.12892006      0.00000000    0.00000000    0.00000000
    1   -3.69339302    8.87794340   -8.75564386      3.34033126    3.36080391   -1.69821757      0.00000000    0.00000000    0.00000000
    8   -8.63632852    9.47056835    7.31032008      4.01697360   -5.70372220   -0.19642386      0.00000000    0.00000000    0.00000000
    1   -8.18301253   -8.73080365    7.70612908     -4.74125492    0.78973619   -1.57607757      0.00000000    0.00000000    0.00000000
    1    9.45855547    9.26926335    6.93587708      0.51925030    4.85895368    1.68168457      0.00000000    0.00000000    0.00000000
    8    8.03139850   -1.66637856   -6.64074455      4.58328350   -5.74585008    1.25372529      0.00000000    0.00000000    0.00000000