 BEGIN_INFO
   #
   # This is a XCRYSDEN-Structure-File
   # aimed for Visualization of Fermi Surface
   #
   # Case: Tight-binding calculation
   #
   # Launch as: xcrysden --xsf HICOLM.XSF
   #
 END_INFO
 # estrutura final
CRYSTAL
PRIMVEC
      18.00000000       0.00000000       0.00000000
       0.00000000      18.00000000       0.00000000
       0.00000000       0.00000000      18.00000000
PRIMCOORD
  585    1
    8   -2.11793466    0.05972870   -5.19518356   -646.82663909 1406.20685565 2398.20915670      0.00000000    0.00000000    0.00000000
    1    1.24944364    0.07450875   -2.76182925     67.13693442  -36.17855834  249.99049175      0.00000000    0.00000000    0.00000000
    1   -0.47406131   -0.47931049   -2.50812772     31.35798072  -28.31825135  -30.28247114      0.00000000    0.00000000    0.00000000
    8   -5.40383697   -8.90568591    6.29626420     17.36837267    4.23186343    0.88144566      0.00000000    0.00000000    0.00000000
    1   -4.51236288    8.84942994    5.91444830      0.02677921   -0.96233901    2.60585345      0.00000000    0.00000000    0.00000000
    1   -6.28886830   -8.62943890    5.92091406     -9.56705959   -3.61933105   -2.13798585      0.00000000    0.00000000    0.00000000
    8    3.08198397   -8.90631018    7.57488388     -2.20184965    0.76755898    3.49857301      0.00000000    0.00000000    0.00000000
    1    2.70962474    8.61270647    8.36891252      3.51566568    0.93150029    1.77982450      0.00000000    0.00000000    0.00000000
    1    2.74508530   -8.66555432    6.66438178     -5.62938955   -1.00724687   -2.39800467      0.00000000    0.00000000    0.00000000
    8    8.96625279   -5.46177129    0.18815427  -1082.76275629  907.70754373 1220.58693574      0.00000000    0.00000000    0.00000000
    1    7.98690719   -5.29674211    0.06894005     -1.29353535   -7.17864907    3.47585610      0.00000000    0.00000000    0.00000000
    1   -8.19712731   -4.93950272    0.02162814     -4.40864715   43.98409571   -7.11631213      0.00000000    0.00000000    0.00000000
    8    2.51696295    6.41693055    5.90551296    -15.91535591  -10.16370035   -0.72102490      0.00000000    0.00000000    0.00000000
    1    2.17042542    5.80509477    5.19414220      3.74082159    5.81400319    5.25388906      0.00000000    0.00000000    0.00000000
    1    2.73116939    6.32999572    6.87867064      3.61393608    2.88158281    1.18101333      0.00000000    0.00000000    0.00000000
    8   -3.22516318    1.73656448   -2.86337375   -127.13897438  308.48598610 -135.30709760      0.00000000    0.00000000    0.00000000
    1   -2.93091293    2.64282645   -2.55909466     -1.77164579   -9.40992538  -13.75950720      0.00000000    0.00000000    0.00000000
    1   -4.09424847    1.32312939   -3.13584531     -0.73727936   -4.33253100  -12.39515454      0.00000000    0.00000000    0.00000000
    8   -1.88507414    7.83915553    7.66232245   -824.37613476   20.93582011 -285.18444306      0.00000000    0.00000000    0.00000000
    1   -1.47601704    8.59673453    8.17145234     12.89487578   -2.72995533    1.43164320      0.00000000    0.00000000    0.00000000
    1   -2.53745127    7.11003353    7.87034743     -0.08686154    9.42096736   10.26705860      0.00000000    0.00000000    0.00000000
    8   -4.82485065    0.22250809    8.71184499   1573.27158664 1283.35028130-2871.28310061      0.00000000    0.00000000    0.00000000
    1   -5.55385313    0.06379622    8.04526523     26.38412750    8.01932390  -11.34423654      0.00000000    0.00000000    0.00000000
    1   -3.84102244    0.04310594    8.74764791     -4.42342398    9.04044830    0.78571735      0.00000000    0.00000000    0.00000000
    8    2.65802918    4.11775906   -0.00777084      6.86431658  -24.46342294  -11.84020901      0.00000000    0.00000000    0.00000000
    1    1.81810279    3.57462128   -0.00580994     -2.32890214    1.47921397    2.10585210      0.00000000    0.00000000    0.00000000
    1    3.63771163    3.91605576   -0.01204711     -3.14456915   10.64133170   10.24014270      0.00000000    0.00000000    0.00000000
    8   -5.17750425    2.29276373    0.28145416   1316.64973361 2553.62879273 3121.69045201      0.00000000    0.00000000    0.00000000
    1   -5.84411308    1.56774756    0.45538935    -26.01003006    5.28306656  -23.61442836      0.00000000    0.00000000    0.00000000
    1   -4.20665458    2.32691644    0.04310133     -2.07495603    4.64335326   -9.11708144      0.00000000    0.00000000    0.00000000
    8    3.62808893   -1.31665327    0.42920488  -3496.84219644  180.36054582 1160.73831840      0.00000000    0.00000000    0.00000000
    1    4.49943870   -0.99293106    0.09299661     35.60965810  -97.12340546  -15.16431364      0.00000000    0.00000000    0.00000000
    1    2.65724315   -1.12488213    0.22153290     12.66314936   -3.48648839   -2.74339829      0.00000000    0.00000000    0.00000000
    8   -6.91202076   -2.60833944    3.88440196     -9.07911114  -11.04560347    6.72442227      0.00000000    0.00000000    0.00000000
    1   -7.40324414   -3.36138366    3.44610726     -6.64462222   -4.34729331   -1.32268425      0.00000000    0.00000000    0.00000000
    1   -6.17338235   -2.53301978    4.55464001      8.73372636   -6.14692790   -3.28118570      0.00000000    0.00000000    0.00000000
    8    5.47695671    6.25195181   -8.78261400     -6.61661434  -18.89533518  -12.97310086      0.00000000    0.00000000    0.00000000
    1    5.70204611    5.54858394   -8.10801333     -0.98173202    7.04460081    4.15576325      0.00000000    0.00000000    0.00000000
    1    5.04185986    6.26311049    8.31680544      2.49698162    7.26558708   -2.13316660      0.00000000    0.00000000    0.00000000
    8   -8.09745083   -6.74996716   -8.72971408     34.71829411    6.88620730    6.46094175      0.00000000    0.00000000    0.00000000
    1   -7.76033196   -6.06901496   -8.07922691      2.11691161    4.11346311   11.92476075      0.00000000    0.00000000    0.00000000
    1   -8.99400558   -7.01154343    8.91217166    -12.60265562    1.42958901  -21.23039064      0.00000000    0.00000000    0.00000000
    8    2.61581629   -5.73607994   -6.75674473      7.92633294   -1.92596081   11.45983875      0.00000000    0.00000000    0.00000000
    1    3.03946013   -5.08364694   -7.38550164      6.34908764    0.20827356   -6.91580081      0.00000000    0.00000000    0.00000000
    1    2.91952972   -6.25840733   -5.95961729      0.79478407    1.94380007  -10.15128021      0.00000000    0.00000000    0.00000000
    8    1.55502019    3.66137540    7.97799174   3531.51493959 -836.37058724  -24.32939993      0.00000000    0.00000000    0.00000000
    1    1.23697566    2.71863490    7.87786421     -1.63945331    1.38628849   -7.23131381      0.00000000    0.00000000    0.00000000
    1    1.12232678    4.55753189    8.05952681    -31.74313614   -8.79934454    4.14124100      0.00000000    0.00000000    0.00000000
    8   -8.70984813    3.84251159    1.00229206     23.84721747  -50.52416190   13.28276602      0.00000000    0.00000000    0.00000000
    1   -8.74528235    3.64247643    0.02289942     -3.00092213   15.15710631    5.13176132      0.00000000    0.00000000    0.00000000
    1    8.64398919    4.18712394    1.68360973     -4.42673832   16.01705058    0.58482369      0.00000000    0.00000000    0.00000000
    8   -5.58500410    0.97864909   -0.81777553   1402.72491447 1010.77732244-2381.56335684      0.00000000    0.00000000    0.00000000
    1   -4.92821435    1.14614185   -0.07761049      3.22266649   43.61538113  -14.36940070      0.00000000    0.00000000    0.00000000
    1   -5.93894847    0.17829070   -1.28979534    -45.78636914  -79.79409712   15.47961606      0.00000000    0.00000000    0.00000000
    8    8.13831448   -0.86737726   -7.95427973  -1477.12728905-2570.31309909 1176.41672978      0.00000000    0.00000000    0.00000000
    1    7.57264945   -0.08263509   -7.70037417    -13.04980152    3.44168760   34.75084093      0.00000000    0.00000000    0.00000000
    1    8.96999124   -1.00315350   -8.49264276      1.10515817    9.85811459   11.57180057      0.00000000    0.00000000    0.00000000
    8    0.33953930    4.16460584    4.65626098   3015.83925597 -260.31527806 1891.52113838      0.00000000    0.00000000    0.00000000
    1    0.34725715    4.89414717    3.99934120      5.51243957   35.23863177   -5.87681252      0.00000000    0.00000000    0.00000000
    1    0.35220246    4.11498322    5.67868440     -4.68049754    3.20127185   19.27531387      0.00000000    0.00000000    0.00000000
    8    1.69583264    8.05769923   -1.79154861     13.08816084  -24.94172078  -24.01564997      0.00000000    0.00000000    0.00000000
    1    2.52744006    8.61278847   -1.76355375      6.42483474    0.10714101    0.86716871      0.00000000    0.00000000    0.00000000
    1    0.74397178    8.21208418   -2.05726404     -4.43637170   -6.52791147   -3.32871359      0.00000000    0.00000000    0.00000000
    8   -2.63304016   -8.02678610   -0.50926485     13.96689908   16.63636157  -67.19013517      0.00000000    0.00000000    0.00000000
    1   -2.73689006   -7.20653253   -1.07218296     -8.38225140   -3.97150397    0.54910155      0.00000000    0.00000000    0.00000000
    1   -3.00720290   -8.95428048   -0.52455505     -1.60340584  -12.56282872   -0.14443489      0.00000000    0.00000000    0.00000000
    8    5.88643001   -8.24147354   -8.16121158     10.16099324   -2.48615361   22.23860586      0.00000000    0.00000000    0.00000000
    1    6.55321707   -7.97084602   -7.46649186     -1.48658317    3.08951846   -2.85911489      0.00000000    0.00000000    0.00000000
    1    5.78588047    8.98835672   -8.79145473      0.24674420   -2.01524113   -3.88381862      0.00000000    0.00000000    0.00000000
    8   -7.82431889   -0.17071213    3.32928798   2328.40125182-1908.05739909 2114.81114179      0.00000000    0.00000000    0.00000000
    1   -8.45472832   -0.71479600    3.89079086     12.43994177    9.82965691   -1.73128146      0.00000000    0.00000000    0.00000000
    1   -6.97254793   -0.37922057    2.83364835     -2.80502531    1.78544948    6.45668476      0.00000000    0.00000000    0.00000000
    8   -8.41914010   -3.10038083   -0.33116379    282.37122386  -50.07368618 -197.37715930      0.00000000    0.00000000    0.00000000
    1    8.62014218   -3.34979303   -0.45482613    -17.43815642    4.13369802    8.77541250      0.00000000    0.00000000    0.00000000
    1   -7.92852859   -2.29271352   -0.00336335    -24.46826243  -75.01138119  -13.52114358      0.00000000    0.00000000    0.00000000
    8    1.21169024   -0.00767578    5.85106079   1239.58636217-1473.59596710 1676.57736713      0.00000000    0.00000000    0.00000000
    1    1.81539635   -0.04079732    5.05434864     46.78185556   25.14982032  -87.16327330      0.00000000    0.00000000    0.00000000
    1    0.26566597    0.27085998    6.01808508    -15.83735755   55.63289127   70.91678809      0.00000000    0.00000000    0.00000000
    8    6.80437886   -2.87502106    3.71462245      0.78708725   27.17086613   -2.49773069      0.00000000    0.00000000    0.00000000
    1    6.64915337   -3.86135903    3.65526835     -5.91144645  -15.97916991    5.38862838      0.00000000    0.00000000    0.00000000
    1    7.29034050   -2.26605077    4.34189739      5.28355948  -16.35528217    5.37737441      0.00000000    0.00000000    0.00000000
    8    7.28868619   -2.61395675   -2.75148651      4.19479605   -5.97599200    2.83914752      0.00000000    0.00000000    0.00000000
    1    6.53335027   -3.15245085   -3.12561325      1.35283471   -3.48496340    1.11803848      0.00000000    0.00000000    0.00000000
    1    8.23602092   -2.43362200   -3.01703373      3.43423383   -0.65524777   -7.56049988      0.00000000    0.00000000    0.00000000
    8   -4.12737796   -3.12045429    2.67722214    -13.62118409  -12.20830594  -11.57745057      0.00000000    0.00000000    0.00000000
    1   -4.85301558   -3.78421827    2.49461676      2.22448245   -2.39339298    6.68677056      0.00000000    0.00000000    0.00000000
    1   -4.08420511   -2.13047590    2.81345323      6.05768625    3.15195154   -6.09651829      0.00000000    0.00000000    0.00000000
    8    5.05185333    7.53124294    4.86166929     -8.65776580   -5.59363060    5.60459378      0.00000000    0.00000000    0.00000000
    1    4.51760714    7.10419128    4.13181556      5.45570207    6.00525249    1.91872539      0.00000000    0.00000000    0.00000000
    1    5.03277468    7.51647607    5.86161708     -0.35469414   10.43304339   -5.30177474      0.00000000    0.00000000    0.00000000
    8    6.92423595    3.09814347   -7.88768418     -4.10456235   -4.11256996    9.58985569      0.00000000    0.00000000    0.00000000
    1    7.27413719    2.58949391   -8.67465519      1.38859158    4.67842783    4.22913542      0.00000000    0.00000000    0.00000000
    1    6.30388786    2.89940146   -7.12863967      3.46962901   -2.57066779    1.70899241      0.00000000    0.00000000    0.00000000
    8   -0.99703983   -8.55018469   -5.77847093   -132.82113208  -40.45217302   72.10039038      0.00000000    0.00000000    0.00000000
    1   -0.11132404   -8.92579626   -5.50478894      8.33930917  -20.35841972    9.39689538      0.00000000    0.00000000    0.00000000
    1   -1.95216007   -8.82927458   -5.67682154     -1.64124440   -2.09797145   -2.35501668      0.00000000    0.00000000    0.00000000
    8   -6.89081207   -8.48180644    0.00809390   1604.01006676 2961.35993107 -740.11834338      0.00000000    0.00000000    0.00000000
    1   -6.46503131   -8.95480657    0.01697123     -2.88973284   35.98590045  -13.10253497      0.00000000    0.00000000    0.00000000
    1   -5.98567070   -7.17204568   -0.00442238   1942.77229085  622.52772963  114.39151769      0.00000000    0.00000000    0.00000000
    8   -6.31910539    8.26284265   -3.36019235     -7.13069214  -13.66384281  -20.94065012      0.00000000    0.00000000    0.00000000
    1   -7.14846146    8.66466763   -2.97136925      6.65947256    8.73728486    7.35260321      0.00000000    0.00000000    0.00000000
    1   -6.11961809    7.54141141   -4.02368426      1.30927490    2.96018829    5.75529632      0.00000000    0.00000000    0.00000000
    8    0.32112597   -6.47460297    3.41829762    434.86375379  -44.58582577  154.06779004      0.00000000    0.00000000    0.00000000
    1    0.01772911   -5.60887596    3.81697549     -4.34741278   12.78523822    3.46519997      0.00000000    0.00000000    0.00000000
    1    0.01527109   -7.42592288    3.46211820      2.17292331   -0.26296615    8.98007303      0.00000000    0.00000000    0.00000000
    8    8.82015543   -6.07531691   -3.47062347    -11.99985386   26.48769547  -12.69504149      0.00000000    0.00000000    0.00000000
    1    8.79096224   -5.07602515   -3.50291211      0.84394241   -5.52267444    2.87729679      0.00000000    0.00000000    0.00000000
    1    8.26713951   -6.79152239   -3.04435968     12.46589037   -3.83718894    5.81504047      0.00000000    0.00000000    0.00000000
    8    1.09009516   -6.98924612   -3.60883713      0.12544731   25.40594965    5.78804785      0.00000000    0.00000000    0.00000000
    1    1.95654819   -6.97636648   -3.10926607      3.53531471   -8.87308337   -2.17370637      0.00000000    0.00000000    0.00000000
    1    0.27371501   -7.56716796   -3.60586981      3.52803623   13.27847831  -26.49605330      0.00000000    0.00000000    0.00000000
    8   -8.97926468   -7.06422011    6.65735094   -807.31233145-1938.47172747 1132.03975769      0.00000000    0.00000000    0.00000000
    1   -6.25892152   -7.12068111    8.94475980     11.15439989   26.32680009   17.74161509      0.00000000    0.00000000    0.00000000
    1   -6.94726185   -5.59697185    8.19906589     14.65812742  -18.26850888   27.98809114      0.00000000    0.00000000    0.00000000
    8    6.25863117   -0.87275788    8.03794532     -2.07689370   22.44451841  -17.70946986      0.00000000    0.00000000    0.00000000
    1    6.30451078    0.05394742    7.66432550     -3.13095946   -9.71337172    3.54088388      0.00000000    0.00000000    0.00000000
    1    6.74371307   -1.73219369    7.87502062      4.69671209  -10.60021306    9.75366028      0.00000000    0.00000000    0.00000000
    8    4.78873200   -7.23326737   -2.46652947    -18.15728817   -6.65351879   -9.55076382      0.00000000    0.00000000    0.00000000
    1    4.59666012   -6.29143009   -2.74316980     11.02484787   -2.33862968    8.56181256      0.00000000    0.00000000    0.00000000
    1    5.49061970   -7.91162254   -2.68485245      8.23424780    1.18086517    1.14387017      0.00000000    0.00000000    0.00000000
    8   -0.01267476   -3.79398008    3.24748396     -4.74342215   20.33706140   55.77357468      0.00000000    0.00000000    0.00000000
    1   -0.11316094   -3.60348051    2.27070812     -0.38047988  -13.01157525  -16.85399064      0.00000000    0.00000000    0.00000000
    1   -0.12690521   -3.26987866    4.09172776      7.46828039   -7.71803815   -3.00029567      0.00000000    0.00000000    0.00000000
    8    1.04497896   -5.88068693    6.98434643    657.15034880 -240.20399327  105.75697145      0.00000000    0.00000000    0.00000000
    1    1.56675851   -5.83622403    7.83655355     13.98317121   -1.02226401    8.61016856      0.00000000    0.00000000    0.00000000
    1    0.37851949   -5.29328163    6.52472637     -5.62312597   37.73356850  -52.68311792      0.00000000    0.00000000    0.00000000
    8   -7.69946947    5.09472671    4.77552143    -16.78711995  -16.10380659   14.14160441      0.00000000    0.00000000    0.00000000
    1   -8.07436346    4.35193725    4.22036577      1.94720210   10.59913160   -0.57634438      0.00000000    0.00000000    0.00000000
    1   -7.71180151    5.33579699    5.74619745      1.24408727    3.02122052   -0.92685851      0.00000000    0.00000000    0.00000000
    8    7.97734575   -4.00539010    8.80096850      2.10034023   17.98013133   -5.39638135      0.00000000    0.00000000    0.00000000
    1    8.69058172   -3.65027477    8.19626389     -0.68050937  -12.85286364    1.25762480      0.00000000    0.00000000    0.00000000
    1    7.95779803   -4.57426161   -8.37654688     -5.01486187   -3.15899673   -0.20231169      0.00000000    0.00000000    0.00000000
    8    1.02862472    2.43298701   -5.44221796   1770.86322305 -369.06042450 -743.22441662      0.00000000    0.00000000    0.00000000
    1    1.29369455    2.68697864   -6.37269891      3.02970964    0.99334845    5.85818800      0.00000000    0.00000000    0.00000000
    1    1.13229038    1.62067178   -4.86786434     -1.42833347   -4.16622098   -1.66556106      0.00000000    0.00000000    0.00000000
    8   -6.41882817    1.98588093    4.70538482      9.82406935    7.51725816  -12.87556427      0.00000000    0.00000000    0.00000000
    1   -6.72940175    2.37722858    5.57191273     -0.16855298    4.08413415   -0.75325868      0.00000000    0.00000000    0.00000000
    1   -6.74912812    1.99150559    3.76127156     -9.58854382    0.54097399    1.16926933      0.00000000    0.00000000    0.00000000
    8    0.86345217   -7.88324829   -6.79497520    158.91234014   38.57135845  -83.58118673      0.00000000    0.00000000    0.00000000
    1    1.14060981   -7.87633788   -7.75602439     15.20094658    3.31786517    5.85647527      0.00000000    0.00000000    0.00000000
    1    0.02180978   -8.09328931   -6.29698033    -50.86990550    9.43838646   -2.75488725      0.00000000    0.00000000    0.00000000
    8    0.75902961    2.63823607   -1.94457286     44.19010244   22.19327269  -34.98629797      0.00000000    0.00000000    0.00000000
    1    1.57499970    2.93595034   -1.44855135      3.98693082    0.32521315   -7.13932441      0.00000000    0.00000000    0.00000000
    1    0.36115648    1.75648166   -2.19890312      2.44915400    6.71871756    8.25015135      0.00000000    0.00000000    0.00000000
    8    6.61488593    5.99620057   -2.90645924     27.13685547   -6.33353891  -10.08229978      0.00000000    0.00000000    0.00000000
    1    7.40600749    5.38687931   -2.96419125     -1.12739423    9.02882509    1.47863650      0.00000000    0.00000000    0.00000000
    1    6.46145726    6.93978687   -2.61221041     -5.28229737   -0.50187211   -1.56008185      0.00000000    0.00000000    0.00000000
    8   -6.70706771   -2.77694306   -4.32217299     -7.96395670   -3.77297628    2.02345381      0.00000000    0.00000000    0.00000000
    1   -7.62759200   -2.77671235   -4.71347079      6.93535138   -0.49676626   -0.96640867      0.00000000    0.00000000    0.00000000
    1   -5.89981925   -2.19120369   -4.39792220      6.57882038    8.63288121   -0.31842299      0.00000000    0.00000000    0.00000000
    8   -5.22803952   -6.94214397   -7.40877432   -137.96499797-1632.94161665 1469.84626707      0.00000000    0.00000000    0.00000000
    1   -5.51417553   -7.64088503   -6.75275294      5.09333380    6.83624586    4.04604836      0.00000000    0.00000000    0.00000000
    1   -4.55450508   -6.20266953   -7.41469024    -16.61269901   20.62031438  -30.55337189      0.00000000    0.00000000    0.00000000
    8   -4.57690323    0.48020040   -5.70853097    -61.81578589    0.74518044   21.63813767      0.00000000    0.00000000    0.00000000
    1   -3.67392903    0.05722563   -5.62974170     38.72114377   16.13791686    8.31766295      0.00000000    0.00000000    0.00000000
    1   -4.92406568    1.41720189   -5.75307882     16.98214371    4.48247063    2.43677542      0.00000000    0.00000000    0.00000000
    8    1.35440614    0.03614278   -2.13266751    -78.95773431   70.79721550  -17.71773447      0.00000000    0.00000000    0.00000000
    1    6.58995332    0.45671105    2.08218256      5.13727223    2.65473215    3.76829558      0.00000000    0.00000000    0.00000000
    1    6.12909907    0.04630006    3.79867116      4.10255093   -0.35088993   -4.99580649      0.00000000    0.00000000    0.00000000
    8    5.06569088   -6.20998261    1.75237200     13.21799253   10.81368007   35.11722202      0.00000000    0.00000000    0.00000000
    1    4.21630011   -6.73610243    1.79940920      2.67550888    4.21484163    3.32671926      0.00000000    0.00000000    0.00000000
    1    5.30117628   -5.23969533    1.69265387    -12.81796197   -6.78199758    6.12868957      0.00000000    0.00000000    0.00000000
    8   -8.94875204    0.75068589    2.29228861  -2371.92273080 1910.14265517-2151.98636673      0.00000000    0.00000000    0.00000000
    1    8.57380388    1.63487917    2.42713429     16.32046469   14.42459291    2.72457840      0.00000000    0.00000000    0.00000000
    1   -8.74639210    0.19318279    1.48573383     23.14325984   -4.93586473    3.90273461      0.00000000    0.00000000    0.00000000
    8   -2.44285601   -5.46681257   -5.58773577     -0.59206040    2.97555991   19.97155528      0.00000000    0.00000000    0.00000000
    1   -2.29158835   -6.20697376   -4.93217736      1.65669063   -0.81396246   -4.60714111      0.00000000    0.00000000    0.00000000
    1   -2.11952683   -5.25385617   -6.51000853      4.96345351   -3.56943849  -13.89774184      0.00000000    0.00000000    0.00000000
    8   -2.15943410    3.64128342    6.40574817     -9.73384382   -9.33444157    8.69105871      0.00000000    0.00000000    0.00000000
    1   -2.24108446    4.63068624    6.28370735     -1.94208774   -2.96835022   -9.53179345      0.00000000    0.00000000    0.00000000
    1   -2.63519620    2.94786710    6.94732389    -10.16309348   -1.87146327   -2.86698312      0.00000000    0.00000000    0.00000000
    8    0.42529600    2.09647803    2.52028449    763.28259197 1621.62961977  815.10515374      0.00000000    0.00000000    0.00000000
    1    1.11275955    2.01027420    3.24166355     18.49934672   -4.08409957    3.04510539      0.00000000    0.00000000    0.00000000
    1    0.02092660    2.85410112    2.00738360     13.33200539   -6.91931496   -7.84293873      0.00000000    0.00000000    0.00000000
    8   -8.52217091    4.00217919   -7.45625432     14.07094972    7.85547416    6.92138662      0.00000000    0.00000000    0.00000000
    1   -7.93800605    4.00101489   -6.64432555     -0.52633697   -1.77397925   -3.25519361      0.00000000    0.00000000    0.00000000
    1   -8.36935074    4.00316631   -8.44474982      1.30736907    0.32027697    2.02929461      0.00000000    0.00000000    0.00000000
    8   -8.99061687    0.38240059    5.63256359     51.93674250 2076.06665639 -780.97110250      0.00000000    0.00000000    0.00000000
    1    8.17825328    0.06902603    5.17271522     11.91845372   -5.20836508    0.77431115      0.00000000    0.00000000    0.00000000
    1   -8.40898771    0.03598980    6.36879697     26.04438482    7.28068889  -33.16948408      0.00000000    0.00000000    0.00000000
    8   -2.65690630    4.84618400    0.91831541   -230.87479153-1749.73592890  984.42085778      0.00000000    0.00000000    0.00000000
    1   -2.71399732    4.50554010   -0.02038135      8.15194097  -24.34221380   -1.30423800      0.00000000    0.00000000    0.00000000
    1   -3.30495903    4.98348129    1.66779107    -12.36394158    8.22180088   13.12771503      0.00000000    0.00000000    0.00000000
    8    0.03473082   -4.92127740   -1.44248453    251.23764016  -41.67615508 -341.10477041      0.00000000    0.00000000    0.00000000
    1   -0.00615691   -5.22530904   -0.49045249    -14.92257308   30.22354098   27.78385190      0.00000000    0.00000000    0.00000000
    1    0.76461184   -4.72074855   -2.09635513     -1.08043642    4.84801057    1.30691430      0.00000000    0.00000000    0.00000000
    8   -3.32337793    2.56762160    4.03105858     -4.44770394  -13.32283619  -22.62305859      0.00000000    0.00000000    0.00000000
    1   -4.07683095    2.52372198    3.37465983     -4.63881546    1.50955806    9.39993528      0.00000000    0.00000000    0.00000000
    1   -2.56874620    1.96513144    4.29185550     -7.16308125   12.12321029    6.30741977      0.00000000    0.00000000    0.00000000
    8   -0.79004631    6.73283747    5.17053185   -148.05204469 -159.73330690   26.68710654      0.00000000    0.00000000    0.00000000
    1   -0.21716698    6.47652900    5.94937366     -0.17129106   -0.50574365    2.87616813      0.00000000    0.00000000    0.00000000
    1   -1.73770303    7.02897729    5.04917183     -7.13365470    5.60664596   -0.58444924      0.00000000    0.00000000    0.00000000
    8   -3.58281231   -2.90715048    5.40186748     -5.97123654   23.98780389    0.17325059      0.00000000    0.00000000    0.00000000
    1   -3.71063193   -3.84102505    5.73656101     -2.02652726  -12.28009526    5.96285927      0.00000000    0.00000000    0.00000000
    1   -2.81561812   -2.26762586    5.34803138     -1.31960138   -9.74099583   -0.17082993      0.00000000    0.00000000    0.00000000
    8    0.98574445   -2.24726827    7.66675706   1130.73276558 -641.70802330 -168.77692445      0.00000000    0.00000000    0.00000000
    1    1.50373087   -3.10078438    7.72759623      3.32292269    6.35405807    2.47000610      0.00000000    0.00000000    0.00000000
    1    0.01752070   -1.99742007    7.69073982     -1.66244070   29.73310418   15.96100928      0.00000000    0.00000000    0.00000000
    8   -4.96786443    5.48158419    5.71526570     15.45321450    2.69127785   16.92982117      0.00000000    0.00000000    0.00000000
    1   -4.32355219    6.15582336    5.35368256     -8.49984146    0.46408527   -0.53361234      0.00000000    0.00000000    0.00000000
    1   -4.95272756    4.49407172    5.87359653     -0.49509226   -0.12008259   -6.61996510      0.00000000    0.00000000    0.00000000
    8    1.28745175   -7.97004419   -0.34594545   3724.64379361 -558.32087398-3107.57924139      0.00000000    0.00000000    0.00000000
    1    0.31628295   -7.88476356   -0.37354864     91.81798002  113.74134000  -64.87317429      0.00000000    0.00000000    0.00000000
    1    2.06627895   -7.29569196   -0.50441262      7.78899232   -9.91772529    4.18938910      0.00000000    0.00000000    0.00000000
    8   -1.53730722   -4.94930364    0.01354756  -1467.94995550 -725.51670717 -174.07503153      0.00000000    0.00000000    0.00000000
    1   -1.75221466   -3.97269465    0.03613659     11.13687176  -12.61022693   17.33927107      0.00000000    0.00000000    0.00000000
    1   -2.06901837   -5.79587678   -0.02070520     -3.60850237   -3.45729418    9.56884216      0.00000000    0.00000000    0.00000000
    8   -0.57576258    5.07865797   -2.18316887   -382.81750179  -90.47561500  256.21147207      0.00000000    0.00000000    0.00000000
    1    0.00645897    5.00799878   -1.37292031     15.95969475    0.46189839   -4.08757548      0.00000000    0.00000000    0.00000000
    1   -1.55656528    5.00524335   -2.36515889      2.05354166   -7.44588658   -0.98415430      0.00000000    0.00000000    0.00000000
    8   -5.12938338   -5.57564260   -8.66699305    108.04973278 1552.55216278-1456.86996283      0.00000000    0.00000000    0.00000000
    1    0.58078532   -4.32245852   -4.61794770      8.21744232    1.75331199   -7.99318356      0.00000000    0.00000000    0.00000000
    1    1.57847771   -2.85261167   -4.21338618      6.45377464   11.69397482    0.80162476      0.00000000    0.00000000    0.00000000
    8    4.04495946    8.33776301    1.72332917    -15.79361306   12.47837936   17.08110921      0.00000000    0.00000000    0.00000000
    1    3.23739565    8.71962428    2.17333081      0.09747530    2.37646325    1.99081239      0.00000000    0.00000000    0.00000000
    1    4.20930928    7.64364885    1.02213490     12.84148824   -6.15173703   -3.81809699      0.00000000    0.00000000    0.00000000
    8   -0.03162961   -2.36025711   -2.00193598     -9.58226275   17.59353863    6.15200901      0.00000000    0.00000000    0.00000000