 BEGIN_INFO
   #
   # This is a XCRYSDEN-Structure-File
   # aimed for Visualization of Fermi Surface
   #
   # Case: Tight-binding calculation
   #
   # Launch as: xcrysden --xsf HICOLM.XSF
   #
 END_INFO
 # estrutura final
CRYSTAL
PRIMVEC
      19.00000000       0.00000000       0.00000000
       0.00000000      19.00000000       0.00000000
       0.00000000       0.00000000      19.00000000
PRIMCOORD
  300    1
    8    5.30174853   -6.76060190    0.93752698     30.06382137  110.95785521   42.44667623      0.00000000    0.00000000    0.00000000
    1    4.72886643   -5.94919300    0.82181175     -0.50738928    4.28204331    1.45928667      0.00000000    0.00000000    0.00000000
    1    5.30823171   -7.55606965    1.54346030     -4.79740113  -13.67943162    4.86983966      0.00000000    0.00000000    0.00000000
    8    5.39633290    1.20450350   -3.32477160   -409.79948064   44.18219344  564.45265028      0.00000000    0.00000000    0.00000000
    1    5.77433829    0.32672657   -3.61903001     22.94965123  -46.66189253  -37.76832855      0.00000000    0.00000000    0.00000000
    1    5.76271477    2.11007976   -3.11108375      8.61541519   16.84303502   -4.58315130      0.00000000    0.00000000    0.00000000
    8    2.38653980    1.12664623   -7.63766876      0.64176114  -28.29301949  -24.18176239      0.00000000    0.00000000    0.00000000
    1    2.11518667    1.51800222   -8.51697272      0.55798635    4.29609038    2.57814773      0.00000000    0.00000000    0.00000000
    1    3.19072081    0.65297315   -7.27864989     -0.33147719    5.30284912    3.64165432      0.00000000    0.00000000    0.00000000
    8   -3.20181538    4.06446920    5.79451594    -45.16828558  -53.42788072  151.30674801      0.00000000    0.00000000    0.00000000
    1   -2.41493648    3.49744601    6.03797681      4.02269409    5.07541996    3.19171759      0.00000000    0.00000000    0.00000000
    1   -4.06435757    3.92694437    5.30761423      9.57694802    1.18558765    1.45337061      0.00000000    0.00000000    0.00000000
    8   -2.50051862   -8.01100414   -3.98966380      5.45382451   -5.63213009    1.12810014      0.00000000    0.00000000    0.00000000
    1   -1.82997463   -7.48915609   -3.46239584     -0.75622997    1.33028755    0.44185295      0.00000000    0.00000000    0.00000000
    1   -3.06449861   -7.84694021   -4.79896983     -2.16802014    3.25172414   -0.68985867      0.00000000    0.00000000    0.00000000
    8    0.31648809   -3.62405158   -7.06634967    -99.25246234 -111.66812693  -28.73587645      0.00000000    0.00000000    0.00000000
    1    0.03426814   -4.21720552   -7.82032973      0.92253243    3.35262071   -1.43961923      0.00000000    0.00000000    0.00000000
    1    0.23434084   -2.65204464   -6.84630248      0.89786536    0.96124355  -11.44039979      0.00000000    0.00000000    0.00000000
    8    3.42493117   -1.49164614    7.31643823     20.47602675  -15.26254995   16.70656627      0.00000000    0.00000000    0.00000000
    1    2.96266782   -2.37778995    7.34851947      6.13708772    2.92223320   -7.37146320      0.00000000    0.00000000    0.00000000
    1    3.15768856   -0.53605101    7.44047413     -7.53683443    5.29344664   -1.23122665      0.00000000    0.00000000    0.00000000
    8   -6.43822766   -0.03321651    4.21747614     -3.89780956   -0.04771152   -9.65549042      0.00000000    0.00000000    0.00000000
    1   -6.95570360    0.82009152    4.15384021     -0.34567249   -1.50919803    1.25025088      0.00000000    0.00000000    0.00000000
    1   -6.50364674   -0.87597458    4.75174603      0.56160142    1.28357488    4.02721706      0.00000000    0.00000000    0.00000000
    8    0.46319708    5.08506169    2.59665248     93.23725011 -603.41439876  588.80053166      0.00000000    0.00000000    0.00000000
    1   -0.15363265    5.80837468    2.90698505    -20.66577509    1.49712572    6.42965298      0.00000000    0.00000000    0.00000000
    1    0.38461204    4.26971847    2.02306235     17.54651572    6.97151282   -1.04190288      0.00000000    0.00000000    0.00000000
    8   -3.53065436    5.65955479   -5.21698368     -0.20078011    5.43532370   -6.34889594      0.00000000    0.00000000    0.00000000
    1   -4.46710637    6.01017077   -5.20730071      1.58409204   -0.01124898    1.73891008      0.00000000    0.00000000    0.00000000
    1   -2.62660437    6.02863881   -5.43247867     -4.54602393   -1.18799127    1.56665858      0.00000000    0.00000000    0.00000000
    8   -5.07931963    0.84968094    1.41906611    161.48214446 -146.49615822   53.10219313      0.00000000    0.00000000    0.00000000
    1   -5.79747128    0.15392558    1.43124829     -0.33899998    1.47914787    0.41161039      0.00000000    0.00000000    0.00000000
    1   -4.40300461    1.19678125    2.06874792     -1.60032367   -8.37140011    0.17465036      0.00000000    0.00000000    0.00000000
    8    0.36489245   -7.26025198   -7.36105594     -2.50542824   -9.08466580   -2.09801710      0.00000000    0.00000000    0.00000000
    1   -0.01006650   -6.33322796   -7.36180213      3.28995378    0.07614242    4.29798164      0.00000000    0.00000000    0.00000000
    1   -0.00939061   -8.18753796   -7.35682180      3.40506849   -3.23478975   -0.53516420      0.00000000    0.00000000    0.00000000
    8   -5.03144423    1.93440600    7.13918622    -92.50823251  453.50081796  160.96043649      0.00000000    0.00000000    0.00000000
    1   -4.08976188    1.65717266    6.94854852     -4.91895152  -13.60919020   -5.43410677      0.00000000    0.00000000    0.00000000
    1   -5.80347560    2.27535354    6.60281911      1.75157562   -3.34448249    3.25884579      0.00000000    0.00000000    0.00000000
    8   -8.54315329   -4.22895855   -2.77718475      0.16537892    0.24964299    0.16375823      0.00000000    0.00000000    0.00000000
    1   -9.41806127   -4.71025859   -2.83059386      1.49513592    0.74509561    2.61181469      0.00000000    0.00000000    0.00000000
    1   -7.63451832   -4.42701853   -2.40959566      0.45628012   -0.39175473   -0.31806913      0.00000000    0.00000000    0.00000000
    8   -3.82990942   -0.00678668   -5.97978659      2.38478820   -6.23538949    0.51802053      0.00000000    0.00000000    0.00000000
    1   -4.80147544    0.06777625   -5.75514064     -2.52428812    4.15124047    0.93747899      0.00000000    0.00000000    0.00000000
    1   -3.09893944    0.62772837   -6.23086652      0.29233961    1.84384492   -0.75631277      0.00000000    0.00000000    0.00000000
    8   -8.41845402   -0.03481765   -8.53667628     -3.90181695    2.52098315    1.84713772      0.00000000    0.00000000    0.00000000
    1   -8.51285204    0.96064235   -8.54745527      1.12373380    3.32714507   -0.08696475      0.00000000    0.00000000    0.00000000
    1   -8.97910400   -0.81358866   -8.81801927      0.88880175   -0.02780118   -0.10314977      0.00000000    0.00000000    0.00000000
    8    1.85250853   -7.07093593    5.98068140    121.52882935 -382.23046648  403.50435465      0.00000000    0.00000000    0.00000000
    1    1.53442740   -6.34431242    6.58962306     37.27111276    0.81983931   40.31756974      0.00000000    0.00000000    0.00000000
    1    2.72329282   -7.32891138    5.56217114      6.85968993   14.27739822  -27.59068960      0.00000000    0.00000000    0.00000000
    8    8.01389572    4.10400904    3.12941281    -16.92076453   -4.61302766   -2.09832186      0.00000000    0.00000000    0.00000000
    1    8.54769195    3.26075420    3.06655658      4.17598308   -1.03075992   -0.67714771      0.00000000    0.00000000    0.00000000
    1    7.44396928    4.64247686    2.50876606     13.65775313    3.98863463   -4.58975903      0.00000000    0.00000000    0.00000000
    8   -3.05765340    4.94008408   -1.56545525      4.40537925   -1.62903664    8.17242438      0.00000000    0.00000000    0.00000000
    1   -2.74709331    5.67178507   -0.95871528     -3.94565496    0.96032705   -7.39883538      0.00000000    0.00000000    0.00000000
    1   -3.04608353    3.94027008   -1.55112721     -0.15706328   -0.58670013   -6.90608159      0.00000000    0.00000000    0.00000000
    8    1.05851528    0.32632627    5.74679987    111.83826970  356.94387249 -228.08376606      0.00000000    0.00000000    0.00000000
    1    1.63179276    0.45615683    4.93781030      2.44157569    1.85771544    4.18400567      0.00000000    0.00000000    0.00000000
    1    0.12919186    0.00323199    5.92550500      8.56736781   -9.19479509   -8.64750873      0.00000000    0.00000000    0.00000000
    8    3.49151047    6.47148503    1.54954198    289.45241159  260.89410918   38.53047301      0.00000000    0.00000000    0.00000000
    1    2.96085745    5.62752404    1.62767101    -16.40965673  -42.26600661   -2.20206074      0.00000000    0.00000000    0.00000000
    1    4.45952249    6.70714400    1.46361502     24.02936879    8.02055333  -12.49287433      0.00000000    0.00000000    0.00000000
    8   -8.20249468    3.54523830   -0.50088891    -15.26171540   27.23087812  -18.96245356      0.00000000    0.00000000    0.00000000
    1   -8.29125000    2.55016385   -0.45713539     -2.41627637   -6.92087443   -0.51012069      0.00000000    0.00000000    0.00000000
    1   -8.83028184    4.32164986   -0.55598238     -3.04208561   -3.16023186    1.74864001      0.00000000    0.00000000    0.00000000
    8    1.77275703   -1.94182298   -6.60621729     93.83734696  107.63329670   31.83065087      0.00000000    0.00000000    0.00000000
    1    1.74869172   -1.50475583   -7.50530524      0.98457635   -0.25365772   -1.60138171      0.00000000    0.00000000    0.00000000
    1    1.09609253   -2.23959479   -5.93284971     11.30279423   -3.17268046    8.31300626      0.00000000    0.00000000    0.00000000
    8    0.36100640   -7.66462840    2.29318109     -4.69053939   -0.05230724   -6.84003206      0.00000000    0.00000000    0.00000000
    1   -0.04633079   -8.56136334    2.46612796      2.81384834    0.29365132    4.16968868      0.00000000    0.00000000    0.00000000
    1    0.02840560   -6.72373733    2.22941314     -1.11175020   -3.09775770    1.81581458      0.00000000    0.00000000    0.00000000
    8   -2.27277055   -8.84878508   -9.41540105     -0.86256965    1.79576361    2.05988106      0.00000000    0.00000000    0.00000000
    1   -3.18032978   -8.71601503    9.18625894      2.74809462   -0.45493634   -0.82815351      0.00000000    0.00000000    0.00000000
    1   -1.60766055   -8.27742608   -8.93462504      0.94559193   -0.02083538   -5.84734370      0.00000000    0.00000000    0.00000000
    8   -7.78252387    7.96619627    1.98592249     -3.21397448    3.32143760   -1.28997012      0.00000000    0.00000000    0.00000000
    1   -8.48987776    7.33397115    1.66983749     -0.83508035    1.33004717    1.38117612      0.00000000    0.00000000    0.00000000
    1   -6.81264886    7.90139545    2.22067749     -1.58182971   -2.35276563    1.20688192      0.00000000    0.00000000    0.00000000
    8   -6.57011386    2.41268631    0.96191023   -124.23156993  132.47441896  -11.00517108      0.00000000    0.00000000    0.00000000
    1   -5.94501863    2.42024816    1.74240076      3.20014547   -7.58384960   -8.40569532      0.00000000    0.00000000    0.00000000
    1   -6.87847758    3.07681415    0.28087161    -12.21875620   12.95678697  -10.87948421      0.00000000    0.00000000    0.00000000
    8   -6.83915310    4.32643583    5.13212806     10.84343901   -4.71057613   -5.02946307      0.00000000    0.00000000    0.00000000
    1   -7.49923914    3.57630086    5.09276014     -4.04518572    2.80966485    1.56176941      0.00000000    0.00000000    0.00000000
    1   -5.84632108    4.40702978    5.22020390     -2.13975528    6.78101378    5.10006610      0.00000000    0.00000000    0.00000000
    8    3.28230106   -6.87258155   -6.07729489    -33.96444116   -9.23355446  -80.52111026      0.00000000    0.00000000    0.00000000
    1    3.81545617   -6.07862549   -5.78515726     -8.44812297   -5.05154501    1.63352796      0.00000000    0.00000000    0.00000000
    1    2.46422413   -7.34814843   -5.75394654     -3.08253410    0.64156395   -7.01703925      0.00000000    0.00000000    0.00000000
    8    4.95372701    3.03601937    3.60703894     43.41369651  -54.52495998  -85.11440173      0.00000000    0.00000000    0.00000000
    1    3.99246677    3.31159453    3.60941495      1.47112598    2.75221346    6.13121424      0.00000000    0.00000000    0.00000000
    1    5.83660060    3.50558314    3.60387564     -6.74206842  -25.92987943   11.00778355      0.00000000    0.00000000    0.00000000
    8    2.72714824   -3.65944884    2.94722591   -282.92699773 -708.58929409   56.83508032      0.00000000    0.00000000    0.00000000
    1    3.58904253   -4.08248510    3.22676922      0.87336135    6.71006169   -2.60980948      0.00000000    0.00000000    0.00000000
    1    1.79451880   -3.97495444    2.77222275      3.17138539    1.84131067   -1.56084459      0.00000000    0.00000000    0.00000000
    8    7.45977453    7.92661168    5.92334486     28.98204609   -5.93947177   22.84018636      0.00000000    0.00000000    0.00000000
    1    7.30105133    8.90956370    6.01597132      2.41915845   -2.74066336   14.20210469      0.00000000    0.00000000    0.00000000
    1    8.25772364    7.32391983    5.92109327      0.27642135   -4.95701202    1.24592520      0.00000000    0.00000000    0.00000000
    8    5.46908892    2.88311913    1.31660902    424.86594133 -203.71575489  362.84553285      0.00000000    0.00000000    0.00000000
    1    4.62926194    2.43405968    1.01164536      0.26287425   29.48458147  -11.05045931      0.00000000    0.00000000    0.00000000
    1    5.70269505    3.60753771    1.96515560    -19.83816116  -32.31255165   -5.17807344      0.00000000    0.00000000    0.00000000
    8   -4.67940171   -0.01322746    6.49118354     99.35871299 -457.08084003 -155.50630818      0.00000000    0.00000000    0.00000000
    1   -4.24820973   -0.82007479    6.08740526     -0.27341509    2.47683897    0.39937599      0.00000000    0.00000000    0.00000000
    1   -5.23349087    0.17650659    7.30170912     -1.48153899   15.86834093    4.22384247      0.00000000    0.00000000    0.00000000
    8    4.41222628    3.57157051    5.71310644    252.24269685 -327.05502175  127.82661692      0.00000000    0.00000000    0.00000000
    1    5.37660244    3.74506276    5.91272208     15.80133809    5.68014502   -4.76663771      0.00000000    0.00000000    0.00000000
    1    3.72520045    2.90688518    6.00662567     31.60591893  -45.82306132   47.35302250      0.00000000    0.00000000    0.00000000
    8    2.73760135    5.71733030   -6.62102287    412.44732685 -226.45417385 -398.13847359      0.00000000    0.00000000    0.00000000
    1    2.50206485    5.50661307   -5.67229352      5.30150934   -8.63439992   44.14982615      0.00000000    0.00000000    0.00000000
    1    2.27546535    5.66237984   -7.50610889     -1.09964961   -2.18983275   -0.30268876      0.00000000    0.00000000    0.00000000
    8   -2.07285754    6.03194579    8.23604000      1.05810401   -2.26198243    7.33232844      0.00000000    0.00000000    0.00000000
    1   -2.92719950    5.51772174    8.31114113     -3.86540952   -0.94542717   -3.36159147      0.00000000    0.00000000    0.00000000
    1   -1.09921253    5.80734886    8.19680194     -3.85573416    0.24991646   -0.83018087      0.00000000    0.00000000    0.00000000
    8    7.04728460    1.58704782    5.19679985   -144.55195150  406.64085766 -299.48160494      0.00000000    0.00000000    0.00000000
    1    7.46878975    1.94668854    4.36435703     -5.56906971   -4.76365061    7.54867879      0.00000000    0.00000000    0.00000000
    1    7.06382276    0.71994245    5.69461672     30.83435455  -22.31492656   31.36668715      0.00000000    0.00000000    0.00000000
    8    5.94374859    1.00374683    8.12524757    108.51860339 -205.75387690 -420.74017232      0.00000000    0.00000000    0.00000000
    1    6.11184825    1.88036677    8.57607544      1.32038171    3.98592849   20.96640029      0.00000000    0.00000000    0.00000000
    1    6.08952048    0.04012078    8.34917143      3.15754200    8.05103076    5.02422514      0.00000000    0.00000000    0.00000000
    8    0.83000526   -1.40277462    6.90375723    -83.01928819 -383.38734136  255.46182828      0.00000000    0.00000000    0.00000000
    1    1.35299351   -1.98066627    7.53024935     -1.80920902    7.34518204   -1.02143182      0.00000000    0.00000000    0.00000000
    1    0.04737196   -1.52750994    6.29392768      4.72630330   -5.54714413    0.87801810      0.00000000    0.00000000    0.00000000
    8    9.49433065   -6.92117127   -6.64891420     -7.49488458   -1.59160775   -3.30057094      0.00000000    0.00000000    0.00000000
    1   -8.52910635   -7.12211847   -6.72581224      0.50899029    2.31206672    0.34045735      0.00000000    0.00000000    0.00000000
    1    8.76355165   -6.65296428   -7.27660220     -1.90160418   -1.01284672   -1.62916496      0.00000000    0.00000000    0.00000000
    8   -8.41883558   -8.36971404    7.32149472      2.13399561    0.32524002    0.58353789      0.00000000    0.00000000    0.00000000
    1   -8.19109054   -9.31172201    7.56791079      1.90870068   -1.28390664   -1.83365164      0.00000000    0.00000000    0.00000000
    1   -8.04020963   -7.67441107    6.71062365      1.80254894   -1.35859275    0.78168132      0.00000000    0.00000000    0.00000000
    8   -4.70043474   -5.81701572    5.81231150      6.75629499   -1.39970982   -3.90998103      0.00000000    0.00000000    0.00000000
    1   -4.80803772   -6.79644872    5.64172945     -0.30004376   -1.75989334    1.52661634      0.00000000    0.00000000    0.00000000
    1   -5.29301074   -5.01212073    5.78124951      1.14639611   -0.51416210    1.74204688      0.00000000    0.00000000    0.00000000
    8    2.26713430    2.77137019    5.47601339    -92.46908578  -59.53428142  -23.05572612      0.00000000    0.00000000    0.00000000
    1    1.39492552    3.00507401    5.90566436     -7.88425431    9.60975492    4.48058733      0.00000000    0.00000000    0.00000000
    1    3.19081887    3.15441087    5.46868019    -13.80411511   38.45089436  -49.48433155      0.00000000    0.00000000    0.00000000
    8    2.27362149    0.41305880    0.40712719   -354.23707894   88.82094910  105.04885276      0.00000000    0.00000000    0.00000000
    1    2.62827613    1.25668261    0.00403269      4.87327196    0.83558213   -2.42995177      0.00000000    0.00000000    0.00000000
    1    1.43550898    0.13780421    0.87805014     -3.88011427    4.40729210    7.01793698      0.00000000    0.00000000    0.00000000
    8    1.65554437   -6.81024130   -0.37833623      3.92086177   13.46998311   -5.28769282      0.00000000    0.00000000    0.00000000
    1    1.31681148   -7.74522536   -0.27329742     -3.09787781   -0.21961457    1.36201130      0.00000000    0.00000000    0.00000000
    1    1.75530331   -6.16187714   -1.13308010     -0.65261915   -1.51914561   -0.81874765      0.00000000    0.00000000    0.00000000
    8    2.08040549    3.01758690   -5.84289093    204.39844761   70.22184342 -442.95284888      0.00000000    0.00000000    0.00000000
    1    2.11826197    2.54201547   -4.96404814    -10.68204544   14.57515424   24.92236896      0.00000000    0.00000000    0.00000000
    1    1.42202572    3.60268005   -6.31635607      7.40427015    5.59966302    3.62745437      0.00000000    0.00000000    0.00000000
    8    5.95454827    5.29648808    4.76590395     39.54600988   31.68984070  -21.44928050      0.00000000    0.00000000    0.00000000
    1    6.00605122    6.28576715    4.90243745      0.77238613    4.83369905   10.84733968      0.00000000    0.00000000    0.00000000
    1    6.00726936    4.67448769    3.98468427     -1.74562779   19.37527862   18.05494329      0.00000000    0.00000000    0.00000000
    8    6.08186723    2.89819094   -0.80700971    281.51536650   52.72378182 -287.28223386      0.00000000    0.00000000    0.00000000
    1    5.08277526    2.86385702   -0.83157124    -21.59175952  -13.70176003    9.83459138      0.00000000    0.00000000    0.00000000
    1    6.82978782    2.38438715   -1.22723190     -7.53438366    3.31129425   -0.00066911      0.00000000    0.00000000    0.00000000
    8   -3.86747703   -3.31341950   -5.45447318      2.25916363   -6.96991122    1.39529877      0.00000000    0.00000000    0.00000000
    1   -4.29719604   -2.64193868   -6.05814637      0.27539077    6.90389488    3.17792471      0.00000000    0.00000000    0.00000000
    1   -3.86366512   -3.49873828   -4.47181814      1.41895472    1.33722914    0.83211324      0.00000000    0.00000000    0.00000000
    8    3.66417868   -8.48621503    0.81551197    -52.41121643  -37.41237074    0.74557468      0.00000000    0.00000000    0.00000000
    1    3.69874942   -7.51446099    0.58213411      1.59531637    7.37755176   -1.55492920      0.00000000    0.00000000    0.00000000
    1    2.94727185   -9.14892727    1.03190381     -4.91915091   -0.72395708    5.62113118      0.00000000    0.00000000    0.00000000
    8    4.17854892    0.14177568   -0.48734575    369.80013686  388.63381946 -824.27694254      0.00000000    0.00000000    0.00000000
    1    4.65204297    0.67537165    0.21339963     27.58825521  -39.33072689  -13.82359331      0.00000000    0.00000000    0.00000000
    1    3.55449561    0.34007958   -1.24312296      4.56215390   -5.66965253   -2.34542374      0.00000000    0.00000000    0.00000000
    8    3.36588479    7.43200757   -4.98983135    133.17527975  341.79121586  -35.67049937      0.00000000    0.00000000    0.00000000
    1    3.18614935    8.40617741   -5.12641091      5.75613228    5.25190184    1.01145368      0.00000000    0.00000000    0.00000000
    1    4.17710702    6.86092305   -4.86433570      5.76815647    7.88968202  -14.90034169      0.00000000    0.00000000    0.00000000
    8    7.43520099    7.97518840   -1.77355732      2.87411807   -3.56504128    6.48200517      0.00000000    0.00000000    0.00000000
    1    7.55346797    8.80922134   -1.23469923     -0.38233131    8.11566954   -1.80346627      0.00000000    0.00000000    0.00000000
    1    8.03786602    7.33568440   -2.25083729     -0.49690650    1.44234212   -5.09097639      0.00000000    0.00000000    0.00000000
    8   -3.09326238   -2.62367567    0.64086639    -22.51081791   11.49989320    8.49183057      0.00000000    0.00000000    0.00000000
    1   -2.23986363   -3.02920681    0.96831387      7.77143132   -0.94730199   -8.85055369      0.00000000    0.00000000    0.00000000
    1   -4.05907552   -2.67780540    0.89432494      2.79105266   -2.20613843   -0.35443803      0.00000000    0.00000000    0.00000000
    8   -1.18572736    0.90337071    5.26284169    -79.37331256   10.16311918  -21.95073458      0.00000000    0.00000000    0.00000000
    1   -0.54451857    1.06331224    6.01333196     11.09945705   19.28141665    4.23557300      0.00000000    0.00000000    0.00000000
    1   -1.68933700    1.47298210    4.61331375     -2.36882100    3.65768536   -0.35302960      0.00000000    0.00000000    0.00000000
    8   -1.26147007    4.98336639    1.51611175   -527.61761452  -38.39592850 -350.48197774      0.00000000    0.00000000    0.00000000
    1   -1.71616876    5.17816709    0.64704923     -1.78822588   -2.95359039   -0.70522215      0.00000000    0.00000000    0.00000000
    1   -0.82671828    4.18775147    1.93795836     -9.42857707    1.37314887   -2.33688419      0.00000000    0.00000000    0.00000000
    8    6.11524617    2.80100353   -4.39761549    207.77472597  459.80860343 -282.53197565      0.00000000    0.00000000    0.00000000
    1    5.79699328    1.85325420   -4.41890919    -15.92258156  -24.93810241   12.54566590      0.00000000    0.00000000    0.00000000
    1    5.68571700    3.70400840   -4.39025713     -1.86898743    1.68941422   -2.71771083      0.00000000    0.00000000    0.00000000
    8    4.00057167   -1.18527409    1.00612746   -212.43851023 -609.65553924 -479.63165964      0.00000000    0.00000000    0.00000000
    1    3.37491723   -1.90726373    1.30151879    -42.65325789   29.08402146  -30.13566932      0.00000000    0.00000000    0.00000000
    1    4.14959620   -0.22375952    1.23688026     17.11613754  -13.72125073   -3.48376743      0.00000000    0.00000000    0.00000000
    8    6.31128779    3.59406797   -8.59059138    277.86287826  504.66456388  127.21009189      0.00000000    0.00000000    0.00000000
    1    5.49384149    3.01991855   -8.63640890     -1.89678401  -39.21139178   -5.41084524      0.00000000    0.00000000    0.00000000
    1    6.50298350    4.56008295   -8.41728299     -0.31072919   -6.62950823    2.85633446      0.00000000    0.00000000    0.00000000
    8    0.95970333    6.76695662   -6.30678323   -432.41018784  229.17498450   69.77826871      0.00000000    0.00000000    0.00000000
    1    1.84461155    7.21541090   -6.18111445     22.81155438   -7.03198137   -0.83852793      0.00000000    0.00000000    0.00000000
    1    0.00065628    7.01967110   -6.17899320      4.62899743    5.00456831   -3.28036444      0.00000000    0.00000000    0.00000000
    8    9.28858691    3.28688070   -2.97272340      0.54114180    1.87327502   -0.16208391      0.00000000    0.00000000    0.00000000
    1    9.15339990    2.38384080   -2.56503419      1.60973256   -0.25651672   -5.93766179      0.00000000    0.00000000    0.00000000
    1    9.47721492    4.20838878   -2.63329962      0.32798416   -4.06155218   -2.26973482      0.00000000    0.00000000    0.00000000
    8    1.01287642    0.34635263    2.50445503    109.31995739  -72.40937278  216.79931668      0.00000000    0.00000000    0.00000000
    1    0.08452511   -0.02519265    2.51371995     -3.49936980  -21.78756047   49.53081736      0.00000000    0.00000000    0.00000000
    1    1.93690693   -0.02419611    2.59841793      3.72899563    2.96088405   -3.32092428      0.00000000    0.00000000    0.00000000
    8    8.15252144   -4.53870371    3.43828903   -197.40812485   91.47390189 -439.23773869      0.00000000    0.00000000    0.00000000
    1    8.61362916   -5.28069934    2.95168020     -1.75749517   -0.35057539    4.37010499      0.00000000    0.00000000    0.00000000
    1    7.27190384   -4.07021394    3.36760021      1.40246327   -2.05372797    1.87074638      0.00000000    0.00000000    0.00000000
    8   -9.45653352    6.93973850   -6.58071836     -3.63863818    1.46153315   -2.48115323      0.00000000    0.00000000    0.00000000
    1    9.38826947    7.01349075   -7.56582847     -2.04555501   -3.05513916    1.30263584      0.00000000    0.00000000    0.00000000
    1   -8.69505752    6.67162151   -5.99060536     -0.57921759   -2.52279940   -0.94641263      0.00000000    0.00000000    0.00000000
    8    2.58942460    5.50712401   -4.47197765   -134.97854032 -340.73850859  346.05340901      0.00000000    0.00000000    0.00000000
    1    3.48387343    5.85538612   -4.19154925     -9.42747880    3.88523744    0.79855938      0.00000000    0.00000000    0.00000000
    1    1.67005140    5.88654866   -4.57569412     -5.79681153   11.87836328   -0.19747954      0.00000000    0.00000000    0.00000000
    8    6.03676807   -7.96340213   -0.99485958     28.77115724  -39.09683620  -69.61692759      0.00000000    0.00000000    0.00000000
    1    6.04516707   -7.02610104   -0.64648782     -6.01811329    4.27376535   13.02135950      0.00000000    0.00000000    0.00000000
    1    5.57956910   -8.81808508   -0.74898334     -3.34025798    4.38298258    2.69789839      0.00000000    0.00000000    0.00000000
    8   -2.78338025    4.65125195    3.64442812     10.03177388   25.58985313 -131.46265336      0.00000000    0.00000000    0.00000000
    1   -1.83602120    4.73765659    3.33618817     -2.47929127   10.25145683   -4.72750477      0.00000000    0.00000000    0.00000000
    1   -3.63845135    4.30985026    3.25421707      6.33775623    2.94335554   -1.62209145      0.00000000    0.00000000    0.00000000
    8   -0.09589646   -6.49866732    6.04560329   -656.23359719  215.27813595   36.08742106      0.00000000    0.00000000    0.00000000
    1   -0.84903078   -5.91487609    5.74238147      4.84070284   -7.71108582   -2.65854614      0.00000000    0.00000000    0.00000000
    1    0.90233197   -6.43976779    6.05174922      3.97950812  -56.64589350  -57.74846917      0.00000000    0.00000000    0.00000000
    8    4.40583631   -6.61739629   -4.00629017     36.29574238   17.45871667   67.53359333      0.00000000    0.00000000    0.00000000
    1    5.04805311   -6.32756215   -4.71588230      4.31250842   -6.77654879    7.47204269      0.00000000    0.00000000    0.00000000
    1    3.66815843   -6.18834640   -3.48502991      2.33407888   -5.29359747   -0.21806337      0.00000000    0.00000000    0.00000000
    8    5.66057598   -0.03804846    1.37318596    -18.28538406  766.48850384  598.24238272      0.00000000    0.00000000    0.00000000
    1    5.91451727    0.91369346    1.54542841     10.98788294   10.50154609    6.39696437      0.00000000    0.00000000    0.00000000
    1    5.84954806   -0.71558666    0.66241189     31.15362687  -26.09409535  -17.90071952      0.00000000    0.00000000    0.00000000
    8    0.86656410   -0.03000821   -2.18943623     -4.17920951    7.30210079    8.09114430      0.00000000    0.00000000    0.00000000
    1    1.31987997    0.76861984   -1.79362718      4.57647695   -3.22387327   -3.17684704      0.00000000    0.00000000    0.00000000
    1   -0.03855187   -0.23131333   -2.56387926      2.14836298   -0.73678907   -2.10842964      0.00000000    0.00000000    0.00000000
    8   -1.46978047    7.83212518    2.86002527      5.46206850    1.50878264   -1.76348593      0.00000000    0.00000000    0.00000000