 BEGIN_INFO
   #
   # This is a XCRYSDEN-Structure-File
   # aimed for Visualization of Fermi Surface
   #
   # Case: Tight-binding calculation
   #
   # Launch as: xcrysden --xsf HICOLM.XSF
   #
 END_INFO
 # estrutura final
CRYSTAL
PRIMVEC
      19.00000000       0.00000000       0.00000000
       0.00000000      19.00000000       0.00000000
       0.00000000       0.00000000      19.00000000
PRIMCOORD
  300    1
    8    5.29800657   -6.77590433    0.92982310     34.03921706  125.49422533   54.93087900      0.00000000    0.00000000    0.00000000
    1    4.72512227   -5.96449868    0.81409752     -0.85585995    4.88111040    3.15799130      0.00000000    0.00000000    0.00000000
    1    5.30449225   -7.57138029    1.53570019     -4.50974671  -14.45074205    4.40316982      0.00000000    0.00000000    0.00000000
    8    5.52044420    1.19736426   -3.50059858  -3156.40766143  465.06993576 4612.67272079      0.00000000    0.00000000    0.00000000
    1    5.89805002    0.32005744   -3.79536142     35.05756201 -133.86914668  -88.97735255      0.00000000    0.00000000    0.00000000
    1    5.88668198    2.10328615   -3.28700533     17.29220792   37.57092206  -24.06427677      0.00000000    0.00000000    0.00000000
    8    2.38641231    1.12889458   -7.63540634      0.23943503  -21.14989637  -19.79658085      0.00000000    0.00000000    0.00000000
    1    2.11507371    1.52024068   -8.51470834      1.37209889    4.01988120    2.84317257      0.00000000    0.00000000    0.00000000
    1    3.19060899    0.65521538   -7.27638139     -0.31233668    4.29546466    5.63606442      0.00000000    0.00000000    0.00000000
    8   -3.19660135    4.07187264    5.76906366    -56.72260539  -65.71905303  204.82934176      0.00000000    0.00000000    0.00000000
    1   -2.40974666    3.50484928    6.01251294      1.82273985    5.30995369    3.80795003      0.00000000    0.00000000    0.00000000
    1   -4.05916006    3.93436497    5.28213963     10.65104033    1.02260076    1.04452426      0.00000000    0.00000000    0.00000000
    8   -2.50079601   -8.01099179   -3.98971828      4.05013446   -5.58332850   -0.71005482      0.00000000    0.00000000    0.00000000
    1   -1.83025183   -7.48914205   -3.46245416     -0.26134955    1.40037390    1.94699248      0.00000000    0.00000000    0.00000000
    1   -3.06476734   -7.84692685   -4.79903145     -1.58784294    3.03764885   -0.29896113      0.00000000    0.00000000    0.00000000
    8    0.33242119   -3.60637508   -7.05955413   -135.13625202 -152.42230755  -39.44627521      0.00000000    0.00000000    0.00000000
    1    0.05022759   -4.19954309   -7.81352622      0.19219679    2.21624485   -1.64285472      0.00000000    0.00000000    0.00000000
    1    0.25030581   -2.63438544   -6.83949733      2.11551304    1.83455051  -12.81818573      0.00000000    0.00000000    0.00000000
    8    3.42236860   -1.49033205    7.31556586     19.41837476  -19.84166404   12.74630645      0.00000000    0.00000000    0.00000000
    1    2.96009866   -2.37646177    7.34765459      4.62413026    2.94505922   -5.80673722      0.00000000    0.00000000    0.00000000
    1    3.15510839   -0.53475949    7.43960742     -7.66173157    6.59956266   -1.60293652      0.00000000    0.00000000    0.00000000
    8   -6.43780176   -0.03313059    4.21799316     -0.60610042   -1.54601883   -8.09532648      0.00000000    0.00000000    0.00000000
    1   -6.95527307    0.82018511    4.15436366      0.91257849   -2.03007554    1.75649978      0.00000000    0.00000000    0.00000000
    1   -6.50322515   -0.87587762    4.75225901      1.39183369    1.05355891    3.89154448      0.00000000    0.00000000    0.00000000
    8    0.43135342    5.26147826    2.39988780   1683.74439596-3922.84480114 5272.46438735      0.00000000    0.00000000    0.00000000
    1   -0.18638936    5.98452843    2.71097546    -46.11637442    1.35376016   10.11364300      0.00000000    0.00000000    0.00000000
    1    0.35179365    4.44593222    1.82692388     15.81754245   19.68288333  -15.47772342      0.00000000    0.00000000    0.00000000
    8   -3.53015566    5.65889395   -5.21647151     -0.16458765    5.32534416   -6.40626510      0.00000000    0.00000000    0.00000000
    1   -4.46660449    6.00950755   -5.20679398      0.89582652    0.84635508    0.77599177      0.00000000    0.00000000    0.00000000
    1   -2.62610433    6.02798800   -5.43195605     -3.65743607   -1.54127877    1.28326423      0.00000000    0.00000000    0.00000000
    8   -5.10865378    0.87839227    1.40931266    102.64666486  -80.53162705   41.95268271      0.00000000    0.00000000    0.00000000
    1   -5.82680808    0.18263654    1.42148888     -0.14229909    0.47046128    0.98741079      0.00000000    0.00000000    0.00000000
    1   -4.43233445    1.22548799    2.05900346      0.57205692   -7.75672688    0.17344366      0.00000000    0.00000000    0.00000000
    8    0.36436019   -7.25846990   -7.36125607     -2.61403835   -9.01503567   -2.01585045      0.00000000    0.00000000    0.00000000
    1   -0.01060980   -6.33145104   -7.36199757      2.84133366   -0.45790424    4.00824652      0.00000000    0.00000000    0.00000000
    1   -0.00992428   -8.18576269   -7.35701449      3.39590438   -2.50389800   -0.69629421      0.00000000    0.00000000    0.00000000
    8   -5.00142515    1.77712688    7.08427686   -853.20917270 4713.21976920 1575.89675437      0.00000000    0.00000000    0.00000000
    1   -4.05892164    1.49980015    6.89423571     -9.08587500  -20.15971501   -9.48076999      0.00000000    0.00000000    0.00000000
    1   -5.77266860    2.11803507    6.54847609      2.17048837   -5.63993579    0.53503371      0.00000000    0.00000000    0.00000000
    8   -8.54330860   -4.22905737   -2.77752038      0.26838631    0.34458987    0.21594679      0.00000000    0.00000000    0.00000000
    1   -9.41822212   -4.71034617   -2.83092969     -0.51910934    0.94974761    2.91292866      0.00000000    0.00000000    0.00000000
    1   -7.63467491   -4.42711805   -2.40992598      0.61321072   -1.13556909   -0.48340011      0.00000000    0.00000000    0.00000000
    8   -3.82957028   -0.00676845   -5.97987837      2.33216156   -6.21506792    0.51723325      0.00000000    0.00000000    0.00000000
    1   -4.80112501    0.06779995   -5.75524157     -2.16767763    4.05030840    0.82564929      0.00000000    0.00000000    0.00000000
    1   -3.09859519    0.62775360   -6.23096031     -2.35829244    1.52700724   -0.76429009      0.00000000    0.00000000    0.00000000
    8   -8.41821205   -0.03566974   -8.53689267     -4.12616350    2.76295109    1.89982242      0.00000000    0.00000000    0.00000000
    1   -8.51260246    0.95978431   -8.54767983      1.75872230    3.31598707   -0.54135891      0.00000000    0.00000000    0.00000000
    1   -8.97886024   -0.81444439   -8.81823724      1.03417737   -0.14454485   -0.15624169      0.00000000    0.00000000    0.00000000
    8    1.74369947   -6.94613446    5.84173712   2078.68723317-2906.14135469 2045.84931545      0.00000000    0.00000000    0.00000000
    1    1.42403331   -6.22284397    6.44714399     62.07222057   58.62260613  101.03812070      0.00000000    0.00000000    0.00000000
    1    2.61333707   -7.20739594    5.41965953     25.92560757   41.02858231  -48.33402817      0.00000000    0.00000000    0.00000000
    8    8.01377967    4.10436362    3.13048067    -15.75959518   -4.08302198   -2.09888958      0.00000000    0.00000000    0.00000000
    1    8.54757637    3.26111484    3.06761591      2.36710021   -2.31234516   -0.33345502      0.00000000    0.00000000    0.00000000
    1    7.44384354    4.64285650    2.50981798     12.32875525    3.18614139   -4.48016553      0.00000000    0.00000000    0.00000000
    8   -3.05769810    4.94035732   -1.56455364      4.11117388   -1.72991106    7.10900894      0.00000000    0.00000000    0.00000000
    1   -2.74714971    5.67205391   -0.95780631     -3.46480724    0.29107088   -6.11039046      0.00000000    0.00000000    0.00000000
    1   -3.04613512    3.94053769   -1.55022630      0.24205068   -0.74175381   -5.73446204      0.00000000    0.00000000    0.00000000
    8    1.03310051    0.21577068    5.82047220    350.19856263 2379.37863021-1582.38245630      0.00000000    0.00000000    0.00000000
    1    1.60664786    0.34553625    5.01143587      3.65982330   -1.79208828    3.23191943      0.00000000    0.00000000    0.00000000
    1    0.10404766   -0.10736103    5.99913405     13.33135275   -3.06428335   -3.01177971      0.00000000    0.00000000    0.00000000
    8    3.39609594    6.38342960    1.57588888    616.10204436 2110.58616148 -512.05390788      0.00000000    0.00000000    0.00000000
    1    2.86558220    5.53948038    1.65370999     31.99781764 -108.87219293  -14.91132980      0.00000000    0.00000000    0.00000000
    1    4.36418259    6.61909892    1.48977085     31.43831181   10.38298669  -12.05554168      0.00000000    0.00000000    0.00000000
    8   -8.12955591    3.39342894   -0.43779932   -187.20781042  153.20025981 -178.54284183      0.00000000    0.00000000    0.00000000
    1   -8.21565026    2.40493157   -0.39223345     -2.08348316  -11.94017683    1.74747642      0.00000000    0.00000000    0.00000000
    1   -8.75469164    4.17641814   -0.49109678     -2.94180003   -2.23876561    2.54756621      0.00000000    0.00000000    0.00000000
    8    1.75566795   -1.95926831   -6.61225963    124.25862622  148.62448547   37.85136480      0.00000000    0.00000000    0.00000000
    1    1.73158616   -1.52218765   -7.51135579      1.56466718   -0.77568803   -1.06021395      0.00000000    0.00000000    0.00000000
    1    1.07897830   -2.25705452   -5.93889090     12.18631070   -2.82232098   10.00851240      0.00000000    0.00000000    0.00000000
    8    0.36124539   -7.66410358    2.29314851     -4.43340017   -2.64339506   -5.87331215      0.00000000    0.00000000    0.00000000
    1   -0.04610641   -8.56083631    2.46610325      3.26033862   -0.14379751    4.37869910      0.00000000    0.00000000    0.00000000
    1    0.02864110   -6.72321396    2.22937654     -0.95838200   -2.88616983    2.00454259      0.00000000    0.00000000    0.00000000
    8   -2.27322814   -8.84883811   -9.41475486     -0.56893285    0.56778082    2.55807108      0.00000000    0.00000000    0.00000000
    1   -3.18074294   -8.71590610    9.18707141      2.64421146   -1.13723309   -0.99703875      0.00000000    0.00000000    0.00000000
    1   -1.60808481   -8.27748439   -8.93398064      0.98735660    0.45214676   -5.28423211      0.00000000    0.00000000    0.00000000
    8   -7.78154092    7.96602459    1.98580570     -2.37220467    4.32200127   -1.24063370      0.00000000    0.00000000    0.00000000
    1   -8.48888959    7.33380662    1.66971658     -0.60291758    2.02380803    1.38042568      0.00000000    0.00000000    0.00000000
    1   -6.81166154    7.90122210    2.22057961     -2.61889823   -3.05544820    0.65332881      0.00000000    0.00000000    0.00000000
    8   -6.68439519    2.43881098    0.82769806    121.97079525  -58.49863512  166.43002140      0.00000000    0.00000000    0.00000000
    1   -6.06192224    2.43978212    1.60638888      4.46688974   -6.74821420   -7.74834349      0.00000000    0.00000000    0.00000000
    1   -6.99540397    3.09630574    0.14485321    -27.65324217   19.44859912  -18.47015185      0.00000000    0.00000000    0.00000000
    8   -6.83989186    4.32588905    5.13163191     11.07885075   -5.51582064   -4.44049625      0.00000000    0.00000000    0.00000000
    1   -7.49997946    3.57575657    5.09225983     -2.55592992    3.20193441    2.57816097      0.00000000    0.00000000    0.00000000
    1   -5.84705871    4.40649039    5.21970299     -1.59177483    5.19539510    5.43962413      0.00000000    0.00000000    0.00000000
    8    3.28932895   -6.87053499   -6.06428649    -41.86958050  -10.14804218  -95.59394751      0.00000000    0.00000000    0.00000000
    1    3.82245833   -6.07657099   -5.77217212     -8.79790987   -5.41118025    1.69285995      0.00000000    0.00000000    0.00000000
    1    2.47125487   -7.34610380   -5.74093718     -2.24335573    0.86859851   -4.62396612      0.00000000    0.00000000    0.00000000
    8    4.94751262    3.04713026    3.61913796     48.12864474  -47.42973705  -97.41657618      0.00000000    0.00000000    0.00000000
    1    3.98625532    3.32269142    3.62152356      0.93792242    3.13321700    5.82611325      0.00000000    0.00000000    0.00000000
    1    5.83043031    3.51665748    3.61593853     -4.44875639  -24.42577759   10.39921545      0.00000000    0.00000000    0.00000000
    8    2.82397034   -3.42458322    2.90688875  -2559.27282830-6107.96525730 1468.99014922      0.00000000    0.00000000    0.00000000
    1    3.68544497   -3.84722225    3.18730761      1.13205464    8.97153171   -4.37657265      0.00000000    0.00000000    0.00000000
    1    1.89092361   -3.73969349    2.73275919      6.15401323    3.54699122   -0.55401218      0.00000000    0.00000000    0.00000000
    8    7.45496685    7.92881184    5.91762928     32.54081650   -9.00921818   26.14214867      0.00000000    0.00000000    0.00000000
    1    7.29629288    8.91173675    6.01023712      3.56509721   -3.59190227   14.57125054      0.00000000    0.00000000    0.00000000
    1    8.25292274    7.32611817    5.91536919      0.92911639   -5.42587122    1.17574864      0.00000000    0.00000000    0.00000000
    8    5.36594709    2.88242498    1.19048856   2437.54400020  778.68419266 3197.28156978      0.00000000    0.00000000    0.00000000
    1    4.52588484    2.43375176    0.88566344     -8.04679841   43.60159637  -51.16972572      0.00000000    0.00000000    0.00000000
    1    5.59938742    3.60713670    1.83907212    -16.80405983  -22.05206149   -5.89816620      0.00000000    0.00000000    0.00000000
    8   -4.70989712    0.14450455    6.54540798    868.72184415-4719.89058109-1565.28970273      0.00000000    0.00000000    0.00000000
    1   -4.27948695   -0.66230320    6.14106880     -1.60247506    2.51378890   -0.25874301      0.00000000    0.00000000    0.00000000
    1   -5.26483130    0.33429212    7.35532373     -0.62402653   25.38839188    2.57546015      0.00000000    0.00000000    0.00000000
    8    4.30518316    3.71155636    5.70647602   3305.08810446-4522.22041033 -910.62320113      0.00000000    0.00000000    0.00000000
    1    5.26883718    3.88438101    5.90707387     21.45222916   10.10244174   -4.51079927      0.00000000    0.00000000    0.00000000
    1    3.61767497    3.04610899    6.00088560     38.01595927  -53.65130179   83.76313625      0.00000000    0.00000000    0.00000000
    8    2.58335930    5.80533031   -6.53074685   4993.18116280-2953.91094432-1686.83090551      0.00000000    0.00000000    0.00000000
    1    2.34872915    5.59546830   -5.58090924     27.33788491  -12.43302241   51.62819912      0.00000000    0.00000000    0.00000000
    1    2.12207765    5.75134942   -7.41463490     -6.99920677    0.85565956    3.80764818      0.00000000    0.00000000    0.00000000
    8   -2.07195046    6.03238446    8.23560896      0.59199900   -4.53445394    9.08420989      0.00000000    0.00000000    0.00000000
    1   -2.92629658    5.51814636    8.31071802     -4.43487667   -0.68510525   -3.56046290      0.00000000    0.00000000    0.00000000
    1   -1.09830665    5.80777387    8.19638030     -3.76367849    0.25174246   -1.04473749      0.00000000    0.00000000    0.00000000
    8    7.09379704    1.44582182    5.30105689  -1946.52377182 4951.96043949-3653.69710085      0.00000000    0.00000000    0.00000000
    1    7.51744038    1.80436748    4.46604815     -5.69848262   -4.30226563    8.29157678      0.00000000    0.00000000    0.00000000
    1    7.11259472    0.57772565    5.79615122     98.69486450  -46.02553203   71.67829574      0.00000000    0.00000000    0.00000000
    8    5.91978607    1.04777714    8.21093690    208.30969089 -461.07307269 -777.71749492      0.00000000    0.00000000    0.00000000
    1    6.08784229    1.92426242    8.66181770      2.72040959    7.30746110   28.74579711      0.00000000    0.00000000    0.00000000
    1    6.06549247    0.08407391    8.43491881      2.74852167    7.59446737    0.86058321      0.00000000    0.00000000    0.00000000
    8    0.84909217   -1.28829099    6.82679573   -334.97598337-2394.03515564 1599.85910366      0.00000000    0.00000000    0.00000000
    1    1.37179710   -1.86611534    7.45333670     -0.29259954    7.21621402   -1.29631621      0.00000000    0.00000000    0.00000000
    1    0.06621703   -1.41293596    6.21701649      8.52712017  -10.94541723    2.86835248      0.00000000    0.00000000    0.00000000
    8    9.49528211   -6.92112953   -6.64838792     -7.69190897   -2.86028991   -3.31354607      0.00000000    0.00000000    0.00000000
    1   -8.52801710   -7.12213892   -6.72538703      0.49397372    2.27802577    0.34091455      0.00000000    0.00000000    0.00000000
    1    8.76450895   -6.65294642   -7.27604300     -0.49614856    0.10010710   -1.23085285      0.00000000    0.00000000    0.00000000
    8   -8.41936678   -8.36941285    7.32141674     -2.67694570    3.70545976    1.26249841      0.00000000    0.00000000    0.00000000
    1   -8.19160817   -9.31142369    7.56784400      0.89225833   -2.19252750   -1.73789081      0.00000000    0.00000000    0.00000000
    1   -8.04073655   -7.67410271    6.71055893      1.14344824   -1.66484472    1.05303854      0.00000000    0.00000000    0.00000000
    8   -4.70160764   -5.81635966    5.81226444      5.26718129   -1.84649656   -3.49475760      0.00000000    0.00000000    0.00000000
    1   -4.80921144   -6.79579029    5.64168470      0.49857438   -2.44723310    2.34290858      0.00000000    0.00000000    0.00000000
    1   -5.29418259   -5.01145906    5.78120826      1.39730509   -1.63955193    2.54833706      0.00000000    0.00000000    0.00000000
    8    2.28732402    2.77442380    5.48824602   -147.85833338 -108.49810691  -26.72961186      0.00000000    0.00000000    0.00000000
    1    1.41509520    3.00811886    5.91790959     -8.59277902    8.60087145    6.45049376      0.00000000    0.00000000    0.00000000
    1    3.21081857    3.15752191    5.48098809    -30.38743618   41.61581889  -88.07913807      0.00000000    0.00000000    0.00000000
    8    2.40059313    0.38285569    0.36379430  -3275.08474606  773.21535715 1082.67307245      0.00000000    0.00000000    0.00000000
    1    2.75524783    1.22655190   -0.03936675      3.96829805    0.83922294    0.38574736      0.00000000    0.00000000    0.00000000
    1    1.56247702    0.10767296    0.83465417     -5.59284049    3.75636931    5.59531980      0.00000000    0.00000000    0.00000000
    8    1.65549464   -6.81198463   -0.37782200      4.35164158   17.66977971   -2.27725739      0.00000000    0.00000000    0.00000000
    1    1.31676368   -7.74696789   -0.27279401     -3.71474391    0.18856864    0.29695798      0.00000000    0.00000000    0.00000000
    1    1.75525536   -6.16361880   -1.13257392     -1.03069848   -5.82373482   -1.50139484      0.00000000    0.00000000    0.00000000
    8    2.00703218    2.99071126   -5.69385258   2215.72860381  658.53136597-4487.99460668      0.00000000    0.00000000    0.00000000
    1    2.04523341    2.51526582   -4.81481509    -32.22300097   28.27459199   45.72915900      0.00000000    0.00000000    0.00000000
    1    1.34891825    3.57587230   -6.16719240      9.92073347    6.79993017    4.66902079      0.00000000    0.00000000    0.00000000
    8    5.94880316    5.28820575    4.76486008     49.62328267   35.47573315  -23.59674737      0.00000000    0.00000000    0.00000000
    1    6.00032346    6.27746022    4.90140324      0.47481045    4.79125569   10.61379829      0.00000000    0.00000000    0.00000000
    1    6.00152461    4.66616262    3.98369065     -3.01318595   20.10267404   16.37313570      0.00000000    0.00000000    0.00000000
    8    6.02306514    2.88839288   -0.74677942    877.46608607  163.82594890 -842.97152441      0.00000000    0.00000000    0.00000000
    1    5.02403051    2.85394885   -0.77132509    -27.53220210  -20.79284389   23.10898377      0.00000000    0.00000000    0.00000000
    1    6.77102373    2.37452168   -1.16696357     -7.14308151    2.76984015   -1.19071172      0.00000000    0.00000000    0.00000000
    8   -3.86810895   -3.31355187   -5.45509071      4.35666129   -9.81951706   -2.82847840      0.00000000    0.00000000    0.00000000
    1   -4.29781586   -2.64206064   -6.05877685     -0.42434312    7.52760132    4.21540703      0.00000000    0.00000000    0.00000000
    1   -3.86429426   -3.49886995   -4.47243853      1.02392060    0.76164152    0.89105409      0.00000000    0.00000000    0.00000000
    8    3.67248204   -8.48059125    0.81490377    -58.78689536  -56.21298859   -0.96794354      0.00000000    0.00000000    0.00000000
    1    3.70705406   -7.50883485    0.58154712      2.05959057    6.74126606   -1.35174635      0.00000000    0.00000000    0.00000000
    1    2.95555660   -9.14331025    1.03128896     -5.21821179   -0.38598491    5.64864486      0.00000000    0.00000000    0.00000000
    8    4.05522849    0.02173602   -0.22612282   2801.02777473 3164.62055894-6270.46477206      0.00000000    0.00000000    0.00000000
    1    4.52870743    0.55463042    0.47409555     19.89050669  -53.05459862  -20.85321390      0.00000000    0.00000000    0.00000000
    1    3.43114986    0.21928740   -0.98235496     -2.64322985  -11.87379536    5.88087695      0.00000000    0.00000000    0.00000000
    8    3.33026083    7.34556018   -4.97678819    497.45589886 1209.72182226 -171.10073228      0.00000000    0.00000000    0.00000000
    1    3.15046116    8.31974764   -5.11338750      5.98096656    6.25043767    0.29442366      0.00000000    0.00000000    0.00000000
    1    4.14137789    6.77452120   -4.85130162      8.95509707   11.69702054  -20.74584226      0.00000000    0.00000000    0.00000000
    8    7.43492454    7.97432783   -1.77353297      2.99522768   -3.18166278    8.75374327      0.00000000    0.00000000    0.00000000
    1    7.55318522    8.80836853   -1.23465953      0.11081187    7.47910128   -2.32909715      0.00000000    0.00000000    0.00000000
    1    8.03757860    7.33483744   -2.25080703     -0.73756301    0.78696427   -4.76843311      0.00000000    0.00000000    0.00000000
    8   -3.09159531   -2.62476772    0.64096191    -23.73969004   12.80267079    8.34962992      0.00000000    0.00000000    0.00000000
    1   -2.23818659   -3.03030313    0.96841852      7.65407433   -0.81428143   -8.97849676      0.00000000    0.00000000    0.00000000
    1   -4.05740775   -2.67889537    0.89443051      2.10206903   -3.11538002    0.48106193      0.00000000    0.00000000    0.00000000
    8   -1.17590155    0.89840684    5.26547392    -75.42623469   11.06189119  -22.56319197      0.00000000    0.00000000    0.00000000
    1   -0.53472520    1.05838213    6.01595534     12.70520808   15.80531633    3.41733900      0.00000000    0.00000000    0.00000000
    1   -1.67951757    1.46802282    4.61594292     -2.21308644    4.30636569    1.20531286      0.00000000    0.00000000    0.00000000
    8   -1.05067519    5.00911223    1.63840328  -6907.73185754-1191.21189417-3557.51666724      0.00000000    0.00000000    0.00000000
    1   -1.50487240    5.20441128    0.76812999     -1.57574006   -0.15208138    0.41390005      0.00000000    0.00000000    0.00000000
    1   -0.61539852    4.21399086    2.05906623    -16.31117699    1.92230178   13.63128242      0.00000000    0.00000000    0.00000000
    8    6.05264769    2.64416768   -4.30586326   1599.19945652 4338.15650714-2356.05674800      0.00000000    0.00000000    0.00000000
    1    5.73406082    1.69619574   -4.32774313    -31.61563425  -57.96928773   49.61280866      0.00000000    0.00000000    0.00000000
    1    5.62284313    3.54702912   -4.29897480     -2.32385744    1.65979132   -2.76788924      0.00000000    0.00000000    0.00000000
    8    4.10521244   -1.03461924    1.12484694  -4272.99394305-4879.92573253 1379.64752868      0.00000000    0.00000000    0.00000000
    1    3.47944181   -1.75601759    1.42110500    -70.86392672   94.29926302   13.74150372      0.00000000    0.00000000    0.00000000
    1    4.25420893   -0.07247528    1.35630604     17.48888452  -43.56316949   -1.28495181      0.00000000    0.00000000    0.00000000
    8    6.22416354    3.42459431   -8.63726529   3093.48767813 5469.98280494 1850.67582096      0.00000000    0.00000000    0.00000000
    1    5.40426302    2.85190267   -8.68424247     10.23272594  -75.10226285  -29.76655634      0.00000000    0.00000000    0.00000000
    1    6.41368873    4.39208148   -8.46493208     -2.50631343   -6.76042581    2.16848321      0.00000000    0.00000000    0.00000000
    8    1.11308715    6.67996450   -6.32708632  -5100.04886236 2995.99494557  677.68734967      0.00000000    0.00000000    0.00000000
    1    1.99720021    7.12733832   -6.20270937     32.73558432  -18.41714898   -0.35483954      0.00000000    0.00000000    0.00000000
    1    0.15329581    6.93166336   -6.20050341      6.02188937    4.55273608   -4.15705946      0.00000000    0.00000000    0.00000000
    8    9.28853763    3.28724500   -2.97117645     -0.84036522    3.41025573   -0.22394887      0.00000000    0.00000000    0.00000000
    1    9.15334528    2.38422240   -2.56349040      1.20739340   -1.20774583   -6.71934310      0.00000000    0.00000000    0.00000000
    1    9.47715920    4.20875749   -2.63176824     -0.12119774   -3.86647050   -2.28960292      0.00000000    0.00000000    0.00000000
    8    0.98781129    0.36341955    2.45556296    290.73299677 -137.34306211  403.39192862      0.00000000    0.00000000    0.00000000
    1    0.05947933   -0.00813714    2.46483304     -5.43514829  -29.44094108   59.77415648      0.00000000    0.00000000    0.00000000
    1    1.91183367   -0.00712729    2.54952861      7.85361163    2.15263316    0.31068973      0.00000000    0.00000000    0.00000000
    8    8.22470021   -4.57064362    3.59181366  -2160.11215847  988.73366484-4587.33015421      0.00000000    0.00000000    0.00000000
    1    8.68534140   -5.31344291    3.10524833     -2.81253287    0.65214446    6.65676525      0.00000000    0.00000000    0.00000000
    1    7.34363234   -4.10293646    3.52116085      1.87003564   -3.56775022    2.36192726      0.00000000    0.00000000    0.00000000
    8   -9.45563308    6.94037499   -6.58041401     -3.45246015    1.27588823   -2.39528062      0.00000000    0.00000000    0.00000000
    1    9.38912963    7.01402453   -7.56566914     -2.09755120   -3.09117757    1.82195314      0.00000000    0.00000000    0.00000000
    1   -8.69416499    6.67224702   -5.99030137     -0.57406398   -2.41943524   -0.92032378      0.00000000    0.00000000    0.00000000
    8    2.62467988    5.58952231   -4.55541058   -430.79370244-1245.14321139 1138.57920896      0.00000000    0.00000000    0.00000000
    1    3.51912877    5.93783166   -4.27491729    -18.58528880    4.93470508    0.82905788      0.00000000    0.00000000    0.00000000
    1    1.70533687    5.96897409   -4.65908537     -7.77772273   16.40602616    3.25471014      0.00000000    0.00000000    0.00000000
    8    6.03395957   -7.95904805   -0.98691112     34.14506169  -47.64979094  -79.03390638      0.00000000    0.00000000    0.00000000
    1    6.04231298   -7.02178427   -0.63855120     -7.12169983    4.09821487   14.52253092      0.00000000    0.00000000    0.00000000
    1    5.57673952   -8.81374570   -0.74103260     -3.87334719    7.31673235    3.18483910      0.00000000    0.00000000    0.00000000
    8   -2.78643607    4.64492382    3.66775086     25.31493073   37.48191056 -193.75657896      0.00000000    0.00000000    0.00000000
    1   -1.83908320    4.73133126    3.35950840     -0.12198652   10.25693501   -5.49914739      0.00000000    0.00000000    0.00000000
    1   -3.64149666    4.30353455    3.27752948      5.38915236    3.46168058   -0.38919542      0.00000000    0.00000000    0.00000000
    8    0.09073029   -6.54275655    6.03955811  -6140.07414170 1529.69051672  759.48121975      0.00000000    0.00000000    0.00000000
    1   -0.66098304   -5.95504153    5.74055907      1.78185378   -7.52986439   -3.40461702      0.00000000    0.00000000    0.00000000
    1    1.09123911   -6.47977388    6.04994650     23.08653987 -171.76101048 -157.80130522      0.00000000    0.00000000    0.00000000
    8    4.39925187   -6.61811182   -4.01791937     43.10393096   21.49557490   86.64049116      0.00000000    0.00000000    0.00000000
    1    5.04145113   -6.32828889   -4.72751785      4.85040716   -6.89673811    6.69047689      0.00000000    0.00000000    0.00000000
    1    3.66157650   -6.18905642   -3.49666478      2.32614652   -5.39696661    0.39389373      0.00000000    0.00000000    0.00000000
    8    5.63734269   -0.28714746    1.20141439     62.70326490 6319.20057454 4180.46378152      0.00000000    0.00000000    0.00000000
    1    5.89164879    0.66607163    1.37233745     16.79076709   -2.70787225    3.88468999      0.00000000    0.00000000    0.00000000
    1    5.82666687   -0.96322864    0.48937820     39.70998669    0.36649106    2.26160103      0.00000000    0.00000000    0.00000000
    8    0.86615957   -0.03048576   -2.18982005     -3.08941144    7.80611534    9.23326465      0.00000000    0.00000000    0.00000000
    1    1.31947240    0.76814212   -1.79401338      4.05923964   -3.41143930   -3.18843505      0.00000000    0.00000000    0.00000000
    1   -0.03895611   -0.23179241   -2.56426299      1.81053650   -0.72024894   -2.30207024      0.00000000    0.00000000    0.00000000
    8   -1.47011756    7.83317666    2.85994994      6.54671629   -0.46601668   -5.38524217      0.00000000    0.00000000    0.00000000