 BEGIN_INFO
   #
   # This is a XCRYSDEN-Structure-File
   # aimed for Visualization of Fermi Surface
   #
   # Case: Tight-binding calculation
   #
   # Launch as: xcrysden --xsf HICOLM.XSF
   #
 END_INFO
 # estrutura final
CRYSTAL
PRIMVEC
      19.00000000       0.00000000       0.00000000
       0.00000000      19.00000000       0.00000000
       0.00000000       0.00000000      19.00000000
PRIMCOORD
  300    1
    8   -3.94501135    3.02593706   -8.42518127      0.02073317    0.05565471    0.02798480      0.00000000    0.00000000    0.00000000
    1   -4.76911155    3.50752662   -8.48646844      0.00736052    0.03904900    0.05793620      0.00000000    0.00000000    0.00000000
    1   -4.22835854    2.16661339   -8.07222004      0.03806219    0.03323498   -0.01595955      0.00000000    0.00000000    0.00000000
    8   -4.17873046   -8.42135604    6.60989307     -0.10627691   -0.01897002    0.02470570      0.00000000    0.00000000    0.00000000
    1   -3.67201242   -8.93156272    5.95569434     -0.00882472    0.03385931    0.05938362      0.00000000    0.00000000    0.00000000
    1   -3.70688002   -7.57166567    6.63046662     -0.08312297   -0.03986744    0.22640505      0.00000000    0.00000000    0.00000000
    8   -7.07302382   -8.80136969    1.42715227      0.26070328    0.06885530   -0.18182591      0.00000000    0.00000000    0.00000000
    1   -7.36962200   -7.91422081    1.20907959     -0.19128772   -0.00746276    0.09783107      0.00000000    0.00000000    0.00000000
    1   -6.58461557   -8.65813039    2.24370301     -0.21494906   -0.02167797    0.11043913      0.00000000    0.00000000    0.00000000
    8    6.18673732   -5.60369439   -3.25188037     -0.02260749    0.00229868   -0.05211319      0.00000000    0.00000000    0.00000000
    1    7.09231222   -5.87857914   -3.40719903      0.03321952    0.00607370    0.21498021      0.00000000    0.00000000    0.00000000
    1    5.92710574   -5.29034501   -4.13318469      0.25036452    0.13074698   -0.03632256      0.00000000    0.00000000    0.00000000
    8    7.07278347    1.34428051    5.49420595      0.07741536    0.00545462   -0.06225229      0.00000000    0.00000000    0.00000000
    1    7.52082414    2.08211422    5.90774357     -0.03827425    0.03053675    0.01814819      0.00000000    0.00000000    0.00000000
    1    6.50553341    1.75831385    4.84178250     -0.04469645   -0.00682516    0.03540803      0.00000000    0.00000000    0.00000000
    8   -9.32334377    5.53764849    2.58546308     -0.04881268   -0.03431175   -0.03919378      0.00000000    0.00000000    0.00000000
    1   -9.40575519    5.26746230    1.66942459      0.04004229   -0.04317431   -0.05726780      0.00000000    0.00000000    0.00000000
    1   -9.47192401    6.48139646    2.54372440     -0.26130114   -0.06058676   -0.06862356      0.00000000    0.00000000    0.00000000
    8   -5.85610431    8.02599844   -2.01337490      0.01650191    0.05836535    0.19110711      0.00000000    0.00000000    0.00000000
    1   -6.45743888    7.29741669   -2.14964942      0.12532466    0.00365146   -0.09891343      0.00000000    0.00000000    0.00000000
    1   -6.38007195    8.80793267   -2.22874855      0.04043176   -0.01757054   -0.17678530      0.00000000    0.00000000    0.00000000
    8    3.60090093    9.49807042   -4.53142974     -6.36569391   -3.89143066    4.39029010      0.00000000    0.00000000    0.00000000
    1    2.82490957   -9.16090940   -4.84827878      1.93883338    6.72411164   -5.10462092      0.00000000    0.00000000    0.00000000
    1    2.65069657    9.13549797   -4.32395656      6.10581172   -3.99812074    3.33185486      0.00000000    0.00000000    0.00000000
    8   -9.33448694   -4.85119607   -6.45021566     -0.18826035   -0.07610395    0.12813472      0.00000000    0.00000000    0.00000000
    1    9.22930567   -3.98939784   -6.47050202     -0.05024598   -0.01441525    0.14843831      0.00000000    0.00000000    0.00000000
    1   -8.83499087   -4.87674510   -7.27801301      0.13721049    0.06248514    0.32536407      0.00000000    0.00000000    0.00000000
    8    6.01882430   -4.00342770    4.21909526      0.04819459   -0.01629310   -0.07471353      0.00000000    0.00000000    0.00000000
    1    5.21088082   -3.49397621    4.29650926      0.01250200   -0.08820036    0.02277591      0.00000000    0.00000000    0.00000000
    1    6.69682217   -3.34476741    4.08236385     -0.00198767    0.05303376    0.01817343      0.00000000    0.00000000    0.00000000
    8    4.52733708   -9.33290170   -8.55050315      0.08948017   -0.20338831    0.00889572      0.00000000    0.00000000    0.00000000
    1    3.67460682   -9.60371205   -8.22058573      0.00764868   -0.10571275   -0.30094333      0.00000000    0.00000000    0.00000000
    1    4.79914143   -8.61904919   -7.95971545      0.04190574   -0.08990364   -0.14536070      0.00000000    0.00000000    0.00000000
    8   -9.04871725    2.20468817    2.14051776     -0.04351676   -0.02665537    0.03815828      0.00000000    0.00000000    0.00000000
    1    9.42380042    2.99593049    2.27356312      0.01199266    0.00120967    0.11718552      0.00000000    0.00000000    0.00000000
    1    9.32521191    1.48202832    2.17460728     -0.09364740    0.01338922    0.04128631      0.00000000    0.00000000    0.00000000
    8    4.34265135   -7.56990880   -2.14349317     -0.50595717    1.54377047    0.41881502      0.00000000    0.00000000    0.00000000
    1    5.24830812   -7.53847641   -2.49149230     -0.24331503   -0.14441581    0.32281777      0.00000000    0.00000000    0.00000000
    1    3.81286250   -7.46805214   -2.92683246      0.19272762   -0.03822454   -0.00686472      0.00000000    0.00000000    0.00000000
    8    0.94640167    5.39318680    6.63794949     -0.00413625   -0.00502211   -0.01869630      0.00000000    0.00000000    0.00000000
    1    0.25049704    4.74077614    6.72203288      0.00250286   -0.01351647   -0.01814504      0.00000000    0.00000000    0.00000000
    1    1.68586027    5.00631659    7.10634104     -0.01565563    0.02136423    0.01510150      0.00000000    0.00000000    0.00000000
    8    5.66842677    9.32753998    3.51580732     -0.02929084   -0.03326423    0.02186861      0.00000000    0.00000000    0.00000000
    1    4.80264670   -9.29613578    3.69681591     -0.02763148   -0.01130202   -0.02544674      0.00000000    0.00000000    0.00000000
    1    6.19587976   -8.90338168    3.28973674     -0.03134508   -0.05645859   -0.06141981      0.00000000    0.00000000    0.00000000
    8    1.28631972    9.43116014    0.73965777      0.00994881    0.01579369   -0.25377822      0.00000000    0.00000000    0.00000000
    1    0.93930685   -8.69780384    0.94536508      0.11214285   -0.01888888    0.02311952      0.00000000    0.00000000    0.00000000
    1    0.50756547    8.87556944    0.71571122      0.03372166   -0.00666419    0.04168673      0.00000000    0.00000000    0.00000000
    8   -7.38495898    1.84949619   -2.96230928     -0.07916269   -0.06034765   -0.05520702      0.00000000    0.00000000    0.00000000
    1   -7.82271085    2.68418582   -2.80211482      0.02048875   -0.00989153   -0.02270075      0.00000000    0.00000000    0.00000000
    1   -7.02262172    1.93216840   -3.85176643     -0.00246263   -0.02240181   -0.02579718      0.00000000    0.00000000    0.00000000
    8   -1.75174666   -5.35357643   -6.39694163     -0.15156920    0.02628436   -0.12069184      0.00000000    0.00000000    0.00000000
    1   -1.13363683   -6.08907224   -6.45447494     -0.11906330    0.07441167    0.10505658      0.00000000    0.00000000    0.00000000
    1   -1.73842208   -4.98013364   -7.28049373      0.10782961    0.01487946   -0.13736903      0.00000000    0.00000000    0.00000000
    8    6.35880098   -4.54196435    7.87338462     -0.06210455   -0.04894073    0.08407360      0.00000000    0.00000000    0.00000000
    1    6.67545665   -4.03923726    8.62406171     -0.05049577   -0.03924982    0.07559996      0.00000000    0.00000000    0.00000000
    1    6.57910973   -5.44493829    8.10348270      0.08658067   -0.02376098    0.02304267      0.00000000    0.00000000    0.00000000
    8   -8.21799867   -9.42598515   -3.71665593      0.10554500   -0.44316372   -0.23143954      0.00000000    0.00000000    0.00000000
    1   -7.93185225   -8.94610056   -4.50732253      0.14971009    0.29182338    0.24368799      0.00000000    0.00000000    0.00000000
    1   -9.17290237    9.51150327   -3.83684242     -0.01182757    0.19305838   -0.17936782      0.00000000    0.00000000    0.00000000
    8   -6.06342878   -2.73949907   -7.65808789      0.01708764    0.17968382    0.00411355      0.00000000    0.00000000    0.00000000
    1   -6.44374624   -3.54340697   -8.03629920      0.06877606    0.19272199   -0.06883970      0.00000000    0.00000000    0.00000000
    1   -5.19725273   -2.68452283   -8.10251984     -0.01404571    0.27750411   -0.03869142      0.00000000    0.00000000    0.00000000
    8    0.47060718   -5.55400402  -10.12431184      0.06102195   -0.03241465    0.20988691      0.00000000    0.00000000    0.00000000
    1    1.00998850   -6.33711601  -10.26766129      0.03120088    0.00739384   -0.05240538      0.00000000    0.00000000    0.00000000
    1    1.10623956   -4.90728105   -9.81254498      0.15151260    0.00089030   -0.04009182      0.00000000    0.00000000    0.00000000
    8   -7.39000959    7.73014192    3.04993558      0.10869091    0.11149405    0.10768234      0.00000000    0.00000000    0.00000000
    1   -7.74032330    8.14703090    2.25296370      0.13739785    0.10425177    0.08538261      0.00000000    0.00000000    0.00000000
    1   -8.15097212    7.32006478    3.46540700      0.11034423   -0.04273725   -0.03564843      0.00000000    0.00000000    0.00000000
    8   -9.00535785    1.80063554   -7.23279113     -0.03204246   -0.05496804   -0.14401031      0.00000000    0.00000000    0.00000000
    1    9.36592625    1.12503531   -6.98670140     -0.01693706    0.01509930    0.09142911      0.00000000    0.00000000    0.00000000
    1   -9.53083503    2.60301360   -7.27901863      0.03074461   -0.00044937    0.03771177      0.00000000    0.00000000    0.00000000
    8    7.24993144    0.54247706    0.20353927     -0.02042648    0.04136717    0.14784203      0.00000000    0.00000000    0.00000000
    1    6.45843334    0.85622264   -0.23234310      0.02866190   -0.03466824   -0.00497893      0.00000000    0.00000000    0.00000000
    1    7.74870921    1.33540853    0.39084786      0.03894648    0.07279341   -0.12358275      0.00000000    0.00000000    0.00000000
    8    1.70582097   -1.39173891   -7.54101375      0.04161440   -0.00100277   -0.02703731      0.00000000    0.00000000    0.00000000
    1    1.16763952   -2.16005745   -7.72975985     -0.03227420    0.03816355    0.04559041      0.00000000    0.00000000    0.00000000
    1    2.55722044   -1.75300695   -7.29719503      0.00253124   -0.03950164    0.03220531      0.00000000    0.00000000    0.00000000
    8    4.15269947   -6.55983229   -7.52823879     -0.06075479   -0.00077698   -0.09292947      0.00000000    0.00000000    0.00000000
    1    3.41372686   -6.98909071   -7.09290639      0.01911200    0.19119369    0.03760311      0.00000000    0.00000000    0.00000000
    1    3.76212621   -6.16442118   10.68533184     -0.24715509    0.37546946    0.13991110      0.00000000    0.00000000    0.00000000
    8    2.65804831   -5.14208102   -4.62866181      0.08244073   -0.20773291   -0.16973712      0.00000000    0.00000000    0.00000000
    1    2.14858646   -5.84435880   -4.22490101     -0.06130542    0.13992757    0.16406006      0.00000000    0.00000000    0.00000000
    1    3.48004347   -5.13736014   -4.12929926     -0.02673672    0.09649681    0.07774092      0.00000000    0.00000000    0.00000000
    8   -6.17534916    2.57015448    3.10306414      0.04133469   -0.03088392   -0.11758801      0.00000000    0.00000000    0.00000000
    1   -5.91160313    3.29234093    3.66941232     -0.05014572   -0.06322591   -0.02858835      0.00000000    0.00000000    0.00000000
    1   -7.00131390    2.27264167    3.49296433     -0.06838154    0.00335745   -0.31892654      0.00000000    0.00000000    0.00000000
    8   -4.66690850   -6.85447654   -5.50741453     -0.02217936   -0.14251774    0.02639585      0.00000000    0.00000000    0.00000000
    1   -5.18578000   -6.18476934   -5.97533317      0.14443276   -0.04966407   -0.04711436      0.00000000    0.00000000    0.00000000
    1   -3.79090914   -6.45065229   -5.48139347      0.00890907   -0.25226921    0.21071300      0.00000000    0.00000000    0.00000000
    8   -7.26214119    5.75146737   -6.31138818     -0.09847650   -0.04026827   -0.07489461      0.00000000    0.00000000    0.00000000
    1   -6.31369997    5.57187504   -6.26734209     -0.10479962    0.02045438    0.05349910      0.00000000    0.00000000    0.00000000
    1   -7.52088074    5.41189311   -7.16914335     -0.01694202   -0.20100807   -0.03448921      0.00000000    0.00000000    0.00000000
    8   -2.01096193   -1.83939745   -3.92998282      0.05729881    0.02777514    0.00633513      0.00000000    0.00000000    0.00000000
    1   -2.17326973   -1.11741553   -3.31302621     -0.04284565   -0.10526150    0.13928348      0.00000000    0.00000000    0.00000000
    1   -1.25170796   -2.28881355   -3.55132740      0.00942924   -0.03018374    0.02486115      0.00000000    0.00000000    0.00000000
    8   -3.95621044   -7.23461837   -8.39385990     -0.07821632   -0.13335682   -0.07711381      0.00000000    0.00000000    0.00000000
    1   -4.90042638   -7.35470124   -8.49961454     -0.09990794   -0.24243795    0.09426673      0.00000000    0.00000000    0.00000000
    1   -3.93591709   -6.50217928   -7.75148925     -0.03634213   -0.17693065   -0.03451428      0.00000000    0.00000000    0.00000000
    8    4.86657061   -9.82029705   -3.10666150     -5.62423052    0.41216262    0.43628767      0.00000000    0.00000000    0.00000000
    1    4.63032497    8.81719653   -3.91860235     -0.39640190   -0.02243687   -2.44726049      0.00000000    0.00000000    0.00000000
    1    3.92038080   -9.49983935   -2.81931240      4.37069428   -0.72414316   -0.56124053      0.00000000    0.00000000    0.00000000
    8   -4.89500737   -5.96602919   -2.89386296     -0.04233112   -0.03190016    0.00318345      0.00000000    0.00000000    0.00000000
    1   -4.18255126   -5.55796305   -3.41728080     -0.02648746    0.10413209    0.14451473      0.00000000    0.00000000    0.00000000
    1   -5.03250676   -6.79636868   -3.37461003      0.23162865   -0.09147016    0.02823033      0.00000000    0.00000000    0.00000000
    8   -6.26761685   -4.02614578    2.78302703      0.15101069   -0.04150778   -0.05478803      0.00000000    0.00000000    0.00000000
    1   -6.77660076   -4.21378791    3.58261963      0.14079115   -0.05483848   -0.05856154      0.00000000    0.00000000    0.00000000
    1   -6.96302470   -3.88899519    2.12150522      0.16596156   -0.03323300   -0.06281812      0.00000000    0.00000000    0.00000000
    8    7.29346649   -3.45556366   -1.00074428     -0.14049207   -0.10724310    0.08861159      0.00000000    0.00000000    0.00000000
    1    6.69809554   -4.08198071   -1.42332091     -0.02724068   -0.09955104   -0.11740846      0.00000000    0.00000000    0.00000000
    1    8.16112625   -3.74770236   -1.28320216     -0.08943409    0.05919160    0.06862759      0.00000000    0.00000000    0.00000000
    8   -2.18342547   -7.85512723   -4.24142554      0.34566074    0.05039717   -0.04772268      0.00000000    0.00000000    0.00000000
    1   -1.85259174   -8.29439651   -5.02020091     -0.19734122   -0.27972632   -0.07311760      0.00000000    0.00000000    0.00000000
    1   -2.48061862   -8.58119404   -3.66962587     -0.10402199    0.35168262    0.12541231      0.00000000    0.00000000    0.00000000
    8   -3.15437725   -8.74705853   -1.66934483      0.10311520   -0.09435849   -0.07003043      0.00000000    0.00000000    0.00000000
    1   -3.37395064   -7.94330472   -1.17599224      0.08468192   -0.08342461   -0.07720265      0.00000000    0.00000000    0.00000000
    1   -3.51951676   -9.44647213   -1.12636907     -0.07416788   -0.05201112   -0.11636181      0.00000000    0.00000000    0.00000000
    8   -9.14698474    7.48985030   -2.13029458      0.00886692   -0.48989999   -0.06846792      0.00000000    0.00000000    0.00000000
    1   -8.19767143    7.53709699   -2.08619933     -0.07351088    0.20239193    0.16612286      0.00000000    0.00000000    0.00000000
    1   -9.33260394    7.86184565   -2.99542363     -0.15312591    0.06182063    0.17339630      0.00000000    0.00000000    0.00000000
    8   -0.04550030    2.57781856    2.98757760      0.00349397    0.02829925    0.00985461      0.00000000    0.00000000    0.00000000
    1    0.83849765    2.43233957    2.65156645     -0.00236099   -0.00720133    0.00312563      0.00000000    0.00000000    0.00000000
    1   -0.55662728    2.80265282    2.20943007     -0.00240575   -0.01459846   -0.00144744      0.00000000    0.00000000    0.00000000
    8    0.97100299    1.13997802   -2.07752970      0.01133565   -0.01228542    0.03424358      0.00000000    0.00000000    0.00000000
    1    1.41521734    0.29288595   -2.08038864      0.02345220   -0.00824412   -0.03675092      0.00000000    0.00000000    0.00000000
    1    1.43712417    1.65569622   -2.73694577     -0.06884088    0.00421455   -0.00474921      0.00000000    0.00000000    0.00000000
    8    4.36327271    3.91970915   -4.28233057      0.32152620    0.04879078    0.00068516      0.00000000    0.00000000    0.00000000
    1    4.42377574    3.08299871   -3.82031466     -0.09565458    0.00319448   -0.01212290      0.00000000    0.00000000    0.00000000
    1    4.08330373    4.54062405   -3.60401814     -0.12312757   -0.00464120   -0.11501167      0.00000000    0.00000000    0.00000000
    8   -7.33310004   -6.69624870   -4.25663238     -0.08344370   -0.10357660   -0.03488293      0.00000000    0.00000000    0.00000000
    1   -7.99405943   -6.36684773   -3.63133950     -0.06363336    0.02103694   -0.06993142      0.00000000    0.00000000    0.00000000
    1   -6.56644197   -6.13424170   -4.09284450     -0.01963999   -0.18501582   -0.08059582      0.00000000    0.00000000    0.00000000
    8   -7.07409258   -8.88655196   -9.11722768      0.23308158    0.25044552    0.15209198      0.00000000    0.00000000    0.00000000
    1   -7.03019422   -8.02877605    9.46008103     -0.08192551    0.07357990   -0.24630355      0.00000000    0.00000000    0.00000000
    1   -7.89097750   -8.83014938   -8.59895799      0.11121995    0.14992249   -0.00684127      0.00000000    0.00000000    0.00000000
    8   -7.65737232    2.79219975    9.16016093      0.08921174    0.04190429   -0.05912738      0.00000000    0.00000000    0.00000000
    1   -8.19577342    1.99327679    9.15622988     -0.01227448    0.10779295    0.08102425      0.00000000    0.00000000    0.00000000
    1   -7.83820547    3.18891535    8.30646945     -0.01231945    0.01361605   -0.05217039      0.00000000    0.00000000    0.00000000
    8   -7.44386120   -6.68448151    3.45415210     -0.13868021   -0.15672507   -0.02902896      0.00000000    0.00000000    0.00000000
    1   -7.28983987   -6.72035422    4.40872368      0.12057992    0.03847611   -0.06465301      0.00000000    0.00000000    0.00000000
    1   -7.98814259   -5.89969975    3.34666832      0.10625041    0.01053636   -0.06205874      0.00000000    0.00000000    0.00000000
    8   -3.66022751   -4.16476702   -4.75378984      0.11225525   -0.01171267    0.01036647      0.00000000    0.00000000    0.00000000
    1   -3.26226312   -3.32882585   -4.47282403      0.06432330   -0.01529457    0.09813874      0.00000000    0.00000000    0.00000000
    1   -3.01742893   -4.51014886   -5.39375864      0.21345476    0.01086836    0.09301098      0.00000000    0.00000000    0.00000000
    8   -3.33331883   -6.33740364    8.07634924      0.02938664    0.05187627   -0.08497806      0.00000000    0.00000000    0.00000000
    1   -4.07137372   -6.54920789    8.65497847      0.12393743    0.11995220    0.07004245      0.00000000    0.00000000    0.00000000
    1   -2.70581610   -7.02431360    8.31578354      0.13877575    0.19256625    0.01854992      0.00000000    0.00000000    0.00000000
    8    5.60683069    6.02776554    3.97480805     -0.05039629   -0.00545144    0.02262738      0.00000000    0.00000000    0.00000000
    1    5.36776412    6.88164710    3.59537128      0.12082346    0.02989748   -0.04701287      0.00000000    0.00000000    0.00000000
    1    5.57649346    6.18991753    4.91722852     -0.00353877    0.05974560    0.00018964      0.00000000    0.00000000    0.00000000
    8   -5.85980235    1.02144162   -8.71835407     -0.01843014   -0.00969159   -0.05900911      0.00000000    0.00000000    0.00000000
    1   -6.26473398    1.85593783   -9.00039406     -0.18289261   -0.10228036   -0.11449198      0.00000000    0.00000000    0.00000000
    1   -6.58137118    0.58811613   -8.25422606      0.13859790   -0.02994979    0.17120160      0.00000000    0.00000000    0.00000000
    8   -5.50574403**************    8.90840681     -0.00000001    0.18700734   -0.00000001      0.00000000    0.00000000    0.00000000
    1   -5.08828203**************   -9.54098439      0.00000004   -0.10089261    0.00000005      0.00000000    0.00000000    0.00000000
    1   -5.99484550**************    8.26330960     -0.00000004   -0.08611473   -0.00000005      0.00000000    0.00000000    0.00000000
    8   -6.25454431   -1.79766632    4.54399554      0.05726698    0.11807012    0.06698657      0.00000000    0.00000000    0.00000000
    1   -6.03616017   -0.87390559    4.38738656      0.04233911    0.12568016    0.06729226      0.00000000    0.00000000    0.00000000
    1   -5.42932185   -2.25174333    4.33828437     -0.01538116    0.10401031   -0.18341319      0.00000000    0.00000000    0.00000000
    8   -2.19519973   -1.67025293    7.95328042     -0.01594120   -0.04696414    0.13509241      0.00000000    0.00000000    0.00000000
    1   -1.97967604   -0.73478219    8.06520369     -0.18741852    0.01519768   -0.02130301      0.00000000    0.00000000    0.00000000
    1   -1.54067958   -1.97061760    7.31606257     -0.10118234    0.02392036    0.01396430      0.00000000    0.00000000    0.00000000
    8    6.43586155    6.88220126   -9.00194545      0.07059733   -0.14751371   -0.05539712      0.00000000    0.00000000    0.00000000
    1    7.00528336    6.35248813   -8.44624408     -0.05819505   -0.12937950    0.12213864      0.00000000    0.00000000    0.00000000
    1    5.58208782    6.83670520   -8.56600692      0.06330215    0.14697606   -0.08814727      0.00000000    0.00000000    0.00000000
    8    8.14689354   -8.68582874   -4.19171555      0.46014595   -0.02148579   -0.22945652      0.00000000    0.00000000    0.00000000
    1    8.76037261   -8.19680619   -3.63876613     -0.20321411    0.27529742    0.16706831      0.00000000    0.00000000    0.00000000
    1    7.85683473   -8.03742930   -4.83885017     -0.11839720   -0.09031729    0.05067370      0.00000000    0.00000000    0.00000000
    8    7.78978677   -4.79977183   -8.36706384     -0.01880866    0.13295950   -0.12851144      0.00000000    0.00000000    0.00000000
    1    8.31302313   -4.15784955   -8.84861192      0.15478113    0.09016810   -0.01226044      0.00000000    0.00000000    0.00000000
    1    8.43009642   -5.22323438   -7.77530900     -0.10079341   -0.13871541   -0.22175552      0.00000000    0.00000000    0.00000000
    8   -3.29252079   -6.55058224    4.81384126     -0.00905568    0.05939297   -0.07854576      0.00000000    0.00000000    0.00000000
    1   -3.78711258   -7.36926889    4.75305888     -0.02948566    0.07648151   -0.15281479      0.00000000    0.00000000    0.00000000
    1   -3.93033592   -5.91100814    5.12753255      0.00721116    0.04382747   -0.01328197      0.00000000    0.00000000    0.00000000
    8   -5.41924014    8.11324863   -8.85641146     -0.12658985    0.02340177    0.16684996      0.00000000    0.00000000    0.00000000
    1   -6.14730140    7.49434146   -8.84676718      0.08906158   -0.24637510   -0.39894838      0.00000000    0.00000000    0.00000000
    1   -5.90306824  -10.03282667   -8.93905180     -0.35869161   -0.09953289    0.00695346      0.00000000    0.00000000    0.00000000
    8   -2.76260122   -5.55038032    1.00329344      0.03119762    0.07941906   -0.15796419      0.00000000    0.00000000    0.00000000
    1   -3.31204408   -6.35423983    0.92575080      0.10878981    0.02110771   -0.01919412      0.00000000    0.00000000    0.00000000
    1   -3.40716266   -4.86249250    1.13195067     -0.01153053   -0.02100935    0.20057383      0.00000000    0.00000000    0.00000000
    8   -8.71993754   -2.78600132    3.29653184      0.02067873   -0.00668892    0.23665766      0.00000000    0.00000000    0.00000000
    1   -7.90118630   -2.27008574    3.32378268     -0.01499504    0.05330547    0.06725885      0.00000000    0.00000000    0.00000000
    1   -9.40274295   -2.12555219    3.43321739     -0.02668525    0.02119192   -0.10996854      0.00000000    0.00000000    0.00000000
    8   -0.09191079   -6.33462566    6.22501552      0.15506436    0.01518665    0.02965052      0.00000000    0.00000000    0.00000000
    1   -0.41755916   -7.06147829    6.75262394     -0.08269210   -0.01413492   -0.15854110      0.00000000    0.00000000    0.00000000
    1   -0.12004959   -5.59082534    6.83316154     -0.06749339   -0.01919424    0.05636281      0.00000000    0.00000000    0.00000000
    8   -8.47734492   -9.17697708   -6.86540185     -0.06170807   -0.12433928   -0.11451926      0.00000000    0.00000000    0.00000000
    1   -9.05390152    9.07634803   -6.68183292      0.15408799   -0.23178318    0.17198727      0.00000000    0.00000000    0.00000000
    1   -7.59431438    9.43942262   -6.95268389      0.04753133    0.09742306   -0.02415829      0.00000000    0.00000000    0.00000000
    8   -1.23629280    5.15972971   -6.29259918      0.03460611   -0.01476587    0.15964139      0.00000000    0.00000000    0.00000000
    1   -1.12529384    4.23144568   -6.51369487     -0.12075122    0.03758084   -0.23589419      0.00000000    0.00000000    0.00000000
    1   -2.13704790    5.20536041   -5.95984671     -0.06816732   -0.01583242   -0.07831602      0.00000000    0.00000000    0.00000000
    8    0.01371166   -2.36618750    2.97452478      0.08092374    0.08172645   -0.02783743      0.00000000    0.00000000    0.00000000
    1   -0.01176702   -2.63657754    2.05670024     -0.04758406   -0.07728853    0.02116308      0.00000000    0.00000000    0.00000000
    1    0.70803218   -2.90908275    3.35141087     -0.06040666   -0.06017581    0.03034058      0.00000000    0.00000000    0.00000000
    8   -7.22721587   -4.29454367    5.41007009     -0.08295619   -0.07302643   -0.09245918      0.00000000    0.00000000    0.00000000
    1   -6.38347437   -3.82627370    5.44075353     -0.12295821   -0.02176291    0.16370233      0.00000000    0.00000000    0.00000000
    1   -7.83027678   -3.59208721    5.12763501     -0.10574458   -0.02826256    0.04789821      0.00000000    0.00000000    0.00000000
    8   -3.28086069    1.41349885    8.39486033      0.07700177   -0.10312667    0.07179241      0.00000000    0.00000000    0.00000000
    1   -3.39034179    2.21238777    8.93263546      0.11091723   -0.07437862    0.03397964      0.00000000    0.00000000    0.00000000
    1   -3.95156174    0.82924780    8.75768958     -0.07032656    0.00626178   -0.01773637      0.00000000    0.00000000    0.00000000
    8    6.52917887   -4.92179804   -5.83016179     -0.15406403   -0.04880772   -0.06078854      0.00000000    0.00000000    0.00000000
    1    7.28128516   -4.70259892   -6.39034864     -0.16195307    0.04546583   -0.04632503      0.00000000    0.00000000    0.00000000
    1    5.88638204   -5.24026295   -6.47531957     -0.09961519   -0.11392331   -0.04418907      0.00000000    0.00000000    0.00000000
    8**************    3.08224392   -3.47495039  **************    0.00000000   -0.00000000      0.00000000    0.00000000    0.00000000
    1**************    3.08224392   -3.47495039  **************   -0.00000000    0.00000000      0.00000000    0.00000000    0.00000000
    1**************    3.08224392   -3.47495039  **************    0.00000000   -0.00000000      0.00000000    0.00000000    0.00000000
    8   -5.12349566    2.79473941    5.68582323     -0.14128343    0.03677317    0.00521360      0.00000000    0.00000000    0.00000000
    1   -4.44498860    3.14015544    5.09916714      0.09429990   -0.10336341    0.19393363      0.00000000    0.00000000    0.00000000
    1   -5.61416609    3.56231036    5.96847043      0.13686921    0.17695053    0.10972273      0.00000000    0.00000000    0.00000000
    8   -2.86345443    9.37098694   -8.06218528      0.28520797   -0.07117466   -0.09676410      0.00000000    0.00000000    0.00000000
    1   -3.24938484   -8.72921580   -8.05572375      0.25942498   -0.08369599   -0.00712605      0.00000000    0.00000000    0.00000000
    1   -3.60223923    8.84862059   -8.41252100      0.16727981   -0.06704016    0.12572986      0.00000000    0.00000000    0.00000000
    8   -8.79916705    9.35095180    7.49371153     -0.17259683    0.18104513    0.19275534      0.00000000    0.00000000    0.00000000
    1   -8.26968492   -8.87543004    7.26178150     -0.03083319   -0.03641795   -0.23747563      0.00000000    0.00000000    0.00000000
    1    9.42153257    9.45688288    6.95181885     -0.10039304   -0.01728370    0.04694880      0.00000000    0.00000000    0.00000000
    8    8.10664369   -1.85343584   -6.58394265      0.03705957   -0.04086801    0.03374880      0.00000000    0.00000000    0.00000000