 BEGIN_INFO
   #
   # This is a XCRYSDEN-Structure-File
   # aimed for Visualization of Fermi Surface
   #
   # Case: Tight-binding calculation
   #
   # Launch as: xcrysden --xsf HICOLM.XSF
   #
 END_INFO
 # estrutura final
CRYSTAL
PRIMVEC
      14.43164368       0.00000000       0.00000000
       0.00000000      14.43164368       0.00000000
       0.00000000       0.00000000      14.43164368
PRIMCOORD
  300    1
    8    2.37108475    2.42134935    0.92945063    301.57954191  158.27788609  -57.63041576      0.00000000    0.00000000    0.00000000
    1    3.19730547    1.86587618    0.89672949   -410.91709714    3.15192070  133.70450736      0.00000000    0.00000000    0.00000000
    1    2.24898246    2.60096826    1.94914217    101.15790803   91.99647568  -85.78936742      0.00000000    0.00000000    0.00000000
    8    2.63769890   -4.59875278   -1.80121923    218.20484764   60.64140746 -227.25804759      0.00000000    0.00000000    0.00000000
    1    2.73234504   -5.57752628   -2.18770480   -173.87595042  208.11258328   69.12812159      0.00000000    0.00000000    0.00000000
    1    3.55250061   -4.17394360   -2.11086029   -119.67521308 -132.76480332  -85.75311815      0.00000000    0.00000000    0.00000000
    8    5.13995782   -6.30248347   -5.69006200   -541.39804589  333.11727721  293.37365355      0.00000000    0.00000000    0.00000000
    1    4.14489462   -6.01092229   -5.47915544     38.90548190   35.93116412   30.78615089      0.00000000    0.00000000    0.00000000
    1    5.23798600   -5.84485026   -6.62824664     25.41032927 -178.50600894  287.16669112      0.00000000    0.00000000    0.00000000
    8    5.25100855   -0.62752006    5.12747552    218.16255872 -169.25194281 -165.80979462      0.00000000    0.00000000    0.00000000
    1    5.89812013   -1.33727138    5.39562821   -279.93110838  514.09173331  248.35010910      0.00000000    0.00000000    0.00000000
    1    4.67010308   -0.86402718    4.34205731    108.11752378  -11.78205429  130.42174111      0.00000000    0.00000000    0.00000000
    8    0.64518455    2.89845115   -4.79582552     34.75023447  111.62996322 -308.55034560      0.00000000    0.00000000    0.00000000
    1    0.76678570    3.24806329   -5.75909836    -68.19222800   38.06363273  557.21651749      0.00000000    0.00000000    0.00000000
    1    0.70579137    1.90936098   -4.96034935      7.42388154   47.96820457   23.75674751      0.00000000    0.00000000    0.00000000
    8    1.88110445    2.64461648   -1.86641154     36.78523294 -792.69395235   -7.50169980      0.00000000    0.00000000    0.00000000
    1    1.81824758    1.85709456   -1.18855203    -35.49161719  -41.09313668 -137.26346205      0.00000000    0.00000000    0.00000000
    1    1.37994971    2.28838186   -2.72124211    146.49568819  -19.87054848  106.70742861      0.00000000    0.00000000    0.00000000
    8    5.10642112    2.05937043    0.06323056    268.44322745  239.75406302 -332.19539600      0.00000000    0.00000000    0.00000000
    1    4.84071841    1.86552407   -0.95079060     95.95620883   99.93656483  193.18640621      0.00000000    0.00000000    0.00000000
    1    5.47554843    3.03894990   -0.00255872   -153.49689125 -727.50028769 -216.69485133      0.00000000    0.00000000    0.00000000
    8   -0.32142543    4.27401414   -0.59851686   -125.48933586 -584.08583689  144.09690500      0.00000000    0.00000000    0.00000000
    1    0.46131895    3.76855742   -1.01885782   -565.91223984  472.32916780  358.78168307      0.00000000    0.00000000    0.00000000
    1   -0.63924166    3.51292333   -0.01652330    257.16782740  422.67802726 -462.34110352      0.00000000    0.00000000    0.00000000
    8    0.39650623   -4.69287025   -2.61134287     18.50228484   18.42634420  304.43199792      0.00000000    0.00000000    0.00000000
    1    0.33012605   -5.30553634   -1.77990985     18.20644298  306.34194776 -109.25707710      0.00000000    0.00000000    0.00000000
    1    0.33975254   -3.67231730   -2.30394339    107.15676696-1087.25014843 -432.30092075      0.00000000    0.00000000    0.00000000
    8   -4.05071964    2.88001757   -0.06748964   -161.09373262  -70.72513660  147.89190558      0.00000000    0.00000000    0.00000000
    1   -4.59267895    2.03468196    0.02481883    171.75056806  109.08273069   71.53031645      0.00000000    0.00000000    0.00000000
    1   -4.87671178    3.43046510   -0.35137483    223.69552418 -238.48403320   80.91859492      0.00000000    0.00000000    0.00000000
    8   -1.38293556    2.24724748    1.38131679   -295.90546224 -721.97556029  308.97696703      0.00000000    0.00000000    0.00000000
    1   -2.41592349    2.05651177    1.14376125    170.11767865 -115.10477821  113.36081868      0.00000000    0.00000000    0.00000000
    1   -1.17514246    1.25621571    1.26437783   -442.85048190  696.11833016  640.59284896      0.00000000    0.00000000    0.00000000
    8    3.30186472    6.48427614   -0.06127132     76.44311907 -316.79339706 -432.31407456      0.00000000    0.00000000    0.00000000
    1    3.21556431    6.30250807   -1.06924730   -199.26684862 -198.92444093  322.44760180      0.00000000    0.00000000    0.00000000
    1    4.09464962    5.86857954    0.13806740  -3387.30706769 1902.75639986 -598.36524620      0.00000000    0.00000000    0.00000000
    8   -1.61369290   -3.70315319    4.23169143    275.47078599 -353.67858606 -576.84472845      0.00000000    0.00000000    0.00000000
    1   -1.94855375   -4.33963049    3.50820914    305.38294421  364.80734192  309.58347949      0.00000000    0.00000000    0.00000000
    1   -1.00803278   -3.15127328    3.65598849   -176.54877589 -338.48961902  147.06685887      0.00000000    0.00000000    0.00000000
    8    3.48566560    7.02043375    7.03355210    303.51968900   77.91560959  237.82311437      0.00000000    0.00000000    0.00000000
    1    3.25349948    6.46628370   -6.57198579    200.20467624   70.21688978 -352.88575188      0.00000000    0.00000000    0.00000000
    1    4.49238084    7.02486873    7.16811080   -218.91482627 -378.16511404 -520.88773237      0.00000000    0.00000000    0.00000000
    8   -7.12490632    2.93780451    1.43523697     29.15113161   88.20176000 -313.19398561      0.00000000    0.00000000    0.00000000
    1   -6.59897381    2.39036785    0.75724838    -72.51444869  369.56966099  360.52571358      0.00000000    0.00000000    0.00000000
    1    6.69843424    3.54393111    0.86381263   1200.74293367-1478.01857586  560.55661278      0.00000000    0.00000000    0.00000000
    8   -3.02298045    4.62169628   -1.72241278     -1.78915437  191.86465613  490.87374148      0.00000000    0.00000000    0.00000000
    1   -2.49412892    3.74241783   -1.77894925      6.10492182   80.29029407   -9.51450663      0.00000000    0.00000000    0.00000000
    1   -2.71291947    5.07025223   -0.83784054     -2.01244499   -5.78172621  -52.40143986      0.00000000    0.00000000    0.00000000
    8   -0.03607672   -2.19381164    5.82144674    -30.99459685 -273.71534273 -228.55093624      0.00000000    0.00000000    0.00000000
    1    0.45493150   -2.82923435    5.24642911    -21.00435362   10.00660313   -6.55559121      0.00000000    0.00000000    0.00000000
    1   -0.67050835   -1.87292888    5.09985354     80.52052074  136.17707690  113.85085218      0.00000000    0.00000000    0.00000000
    8   -6.04645254    6.53833775    2.88414049    273.93548336 -137.20719152 -483.80221880      0.00000000    0.00000000    0.00000000
    1   -6.06904516   -7.18443853    2.14020559    -25.37657115 -278.60376265  330.95436839      0.00000000    0.00000000    0.00000000
    1   -5.02287157    6.55107825    3.01344230   -173.37439623  -11.48771799 -151.48900296      0.00000000    0.00000000    0.00000000
    8   -2.96096294   -1.80621398    0.81412115   -176.83722458 -140.94890193   93.50943097      0.00000000    0.00000000    0.00000000
    1   -3.77147010   -2.30949406    1.24910765    217.20793623  -63.82645598  167.04316063      0.00000000    0.00000000    0.00000000
    1   -2.75490876   -2.48094412    0.07479713    -12.91075994   -1.27617671  104.30135746      0.00000000    0.00000000    0.00000000
    8   -2.39170754    1.16354594   -5.19449511   -177.28759561   81.95973083  126.82348359      0.00000000    0.00000000    0.00000000
    1   -3.13182190    1.12383600   -5.84745345    130.40157932  115.96179481  103.34836582      0.00000000    0.00000000    0.00000000
    1   -2.48603365    0.27911939   -4.65587394     30.23698089  195.55627820   46.32052719      0.00000000    0.00000000    0.00000000
    8   -1.34317688    0.76451745    5.48640314     82.41503179  143.20417801   37.42473446      0.00000000    0.00000000    0.00000000
    1   -0.79749927    1.02226528    4.64510286   -121.02134168  -21.54149666  135.44413964      0.00000000    0.00000000    0.00000000
    1   -1.61131301    1.69511153    5.78085240      0.32448732    1.76691260   -3.86100236      0.00000000    0.00000000    0.00000000
    8   -4.64711571    5.41591889    0.73879341   -610.75784313  -47.14525128 -177.58587001      0.00000000    0.00000000    0.00000000
    1   -5.36025960    5.50646790    0.01613593     64.25891821   13.32553707  188.58470555      0.00000000    0.00000000    0.00000000
    1   -4.85111998    4.55952971    1.23773797    -52.67048541  116.77211263   73.89643291      0.00000000    0.00000000    0.00000000
    8    3.39487878    2.80558866    4.37894266    224.59802783 -346.39343146   83.84176846      0.00000000    0.00000000    0.00000000
    1    3.12024680    1.88287676    4.78977179     73.98871363  224.25476374 -286.48008308      0.00000000    0.00000000    0.00000000
    1    4.38423299    2.69390555    4.50345868   -235.70329486   42.74314715   10.74626660      0.00000000    0.00000000    0.00000000
    8   -2.32994496    4.17484052    2.61319214    -53.97212330 -406.49469636 -242.62256386      0.00000000    0.00000000    0.00000000
    1   -1.70419444    4.35401957    1.77931532    -27.68939646  187.63900814   77.92532384      0.00000000    0.00000000    0.00000000
    1   -3.12688582    3.62473076    2.20379030    137.82199935  117.97380330  -72.48087805      0.00000000    0.00000000    0.00000000
    8   -5.09406299   -4.22919782    3.47019224    505.25656474 -183.48524175 -305.63328295      0.00000000    0.00000000    0.00000000
    1   -4.12850211   -3.90618353    3.35876150    -73.19196908   86.60198325   40.46215834      0.00000000    0.00000000    0.00000000
    1   -5.29332712   -4.34624522    2.48739847     -3.27834826   27.80583275   19.16721203      0.00000000    0.00000000    0.00000000
    8   -5.02255787    4.61569885   -4.29025269   -318.97739213 -133.02674367  202.00750536      0.00000000    0.00000000    0.00000000
    1   -4.76838002    4.47836461   -3.29213942    -63.89351813    0.48948282  -71.04653438      0.00000000    0.00000000    0.00000000
    1   -6.03839090    4.84026222   -4.17500481     87.70090292   19.66910065   44.58320181      0.00000000    0.00000000    0.00000000
    8    1.59323122   -5.52266784    5.59451047    -47.83944224 -124.20846176  -58.25191560      0.00000000    0.00000000    0.00000000
    1    2.25507876   -6.32176490    5.56868566   -118.16887988  124.26800295 -148.67218016      0.00000000    0.00000000    0.00000000
    1    0.68470093   -5.93185938    5.58407545     81.05091863  243.49541479 -117.42260610      0.00000000    0.00000000    0.00000000
    8   -3.02813485   -5.67355976    2.38058811   -219.85095404 -441.09872096 -364.96227286      0.00000000    0.00000000    0.00000000
    1   -3.49029456   -6.59839134    2.53452949    -47.79113754  113.35773055  -60.61400827      0.00000000    0.00000000    0.00000000
    1   -2.34077339   -5.91702775    1.66382911    -69.56649704  648.99001350  203.00374419      0.00000000    0.00000000    0.00000000
    8   -2.14516563    6.59088875    1.06425842   -184.28615878 -774.06918135   55.13016222      0.00000000    0.00000000    0.00000000
    1   -1.28010328    6.39241190    1.63437098   -107.39100547  -17.73433908  -26.96886406      0.00000000    0.00000000    0.00000000
    1   -2.82304962    5.91404466    1.47515678    520.76576974  434.96928565   63.53960489      0.00000000    0.00000000    0.00000000
    8   -5.95598991   -5.81166254    0.56360323     22.62471117  267.75691533 -339.94155007      0.00000000    0.00000000    0.00000000
    1   -6.33999502   -5.06852487   -0.03255998    209.41174851   19.89838269  133.25337229      0.00000000    0.00000000    0.00000000
    1   -5.79261828   -6.51873961   -0.13177646   -111.90080328  176.80785676  263.81810917      0.00000000    0.00000000    0.00000000
    8    6.79018025   -2.99495303    4.61786280    429.27245785  -65.72555659 -533.83764053      0.00000000    0.00000000    0.00000000
    1    6.87775529   -2.24726134    3.92774898   -375.38816995 -355.63487017  351.47437542      0.00000000    0.00000000    0.00000000
    1   -6.68807004   -3.35494136    4.39411556   -484.13871790  268.77739783  280.57514919      0.00000000    0.00000000    0.00000000
    8   -6.02891396   -6.75883539    5.39265007    102.15090822 -775.34038526 -622.32292967      0.00000000    0.00000000    0.00000000
    1   -5.92002127   -6.16075651    4.51525979    -24.68759217  -24.29619011   86.31652573      0.00000000    0.00000000    0.00000000
    1   -6.14240273    6.69773170    5.03410126    -11.75136505   17.65830682  291.66376798      0.00000000    0.00000000    0.00000000
    8   -6.92124463    1.93136687   -3.53858889     23.18713930  254.37000555  140.77990238      0.00000000    0.00000000    0.00000000
    1    7.14061546    2.74454144   -3.09081142     59.71326052 -159.43139410   99.86368863      0.00000000    0.00000000    0.00000000
    1   -6.01135060    1.94546592   -3.07323088   -310.49010105   10.88349518  -87.11523340      0.00000000    0.00000000    0.00000000
    8    1.73613819   -2.83673379    0.73986468    547.19744367 -396.94316310  -41.53433107      0.00000000    0.00000000    0.00000000
    1    1.98532656   -3.78650016    0.31328868   -213.18521403  711.15699856 -278.95168767      0.00000000    0.00000000    0.00000000
    1    2.21230673   -2.89266319    1.64243058   -312.15939092  -84.71074588 -435.89660914      0.00000000    0.00000000    0.00000000
    8    6.24207237   -5.24321464   -1.17557724   -418.38125858 -153.08283109   28.37902157      0.00000000    0.00000000    0.00000000
    1    6.16595400   -6.05745206   -1.81507861     37.97880392   26.73622752   20.70874544      0.00000000    0.00000000    0.00000000
    1    5.26388051   -4.93617571   -1.28391455     33.00241094 -111.03249727    2.85844655      0.00000000    0.00000000    0.00000000
    8    6.31127592    3.91511494   -4.76845340     69.38729163   91.10757446 -359.17697681      0.00000000    0.00000000    0.00000000
    1    5.81077420    3.22927119   -5.35086051    127.36986407  100.21239896   18.27012517      0.00000000    0.00000000    0.00000000
    1    6.65990481    4.37442764   -5.58574366   -272.80558307 -386.32200034  188.17700391      0.00000000    0.00000000    0.00000000
    8   -3.01107920   -5.54813657   -4.54101760   -367.16640738  213.71048276  179.27630587      0.00000000    0.00000000    0.00000000
    1   -3.97614513   -5.69449504   -4.34628302      3.83314976   -1.47544508    3.46975827      0.00000000    0.00000000    0.00000000
    1   -2.50477108   -6.28339605   -3.98658603   -147.57443161   10.90519994 -144.70949173      0.00000000    0.00000000    0.00000000
    8   -3.44257479    6.70196305    4.52109814    151.17305091  -13.83528416  248.62398104      0.00000000    0.00000000    0.00000000
    1   -2.89346886    5.84793643    4.29949091   -127.99143125  121.21322949  -34.33617236      0.00000000    0.00000000    0.00000000
    1   -2.92230308    7.02541960    5.32703897   -389.70359845 -413.85404486 -914.99834403      0.00000000    0.00000000    0.00000000
    8   -2.09187024    5.73750574   -4.21994260    -25.53799711 -181.45902655   41.22954382      0.00000000    0.00000000    0.00000000
    1   -2.85126929    4.99679395   -4.49673772    215.62563696   21.88116234   16.86868994      0.00000000    0.00000000    0.00000000
    1   -1.90204740    5.37039923   -3.30312775    263.34868467  171.49847814 -369.97587244      0.00000000    0.00000000    0.00000000
    8   -1.26631340    4.70337529    5.38419139   -306.19303980  137.83951640 -123.72416121      0.00000000    0.00000000    0.00000000
    1   -2.12853502    4.86189029    5.93877455    195.88080350 -104.57712501 -232.19598407      0.00000000    0.00000000    0.00000000
    1   -1.79070464    4.83219651    4.50927751    159.66416777  113.83782892  445.49097664      0.00000000    0.00000000    0.00000000
    8    7.09354445   -0.35621940   -5.64402915   -218.84514572  344.93115551  -31.66454311      0.00000000    0.00000000    0.00000000
    1    7.13509406    0.43052682   -4.98857065    -66.89392480 -254.39102735 -248.72464203      0.00000000    0.00000000    0.00000000
    1    6.05961938   -0.39929537   -5.49624707    247.76489746   87.51395091  -42.38083459      0.00000000    0.00000000    0.00000000
    8   -5.76643326    0.83942010    4.91383295    359.53562523  -58.47460494  448.20625354      0.00000000    0.00000000    0.00000000
    1   -5.32945446    1.62152220    5.40590247   -318.60239538 -370.92806651 -326.54861266      0.00000000    0.00000000    0.00000000
    1   -5.13241468    0.06630885    5.13474694   -239.54930693  214.82731815   23.78145154      0.00000000    0.00000000    0.00000000
    8    4.92459862   -5.03323159    2.70504978    504.40305576 -225.08178443-1291.54488335      0.00000000    0.00000000    0.00000000
    1    4.20267455   -4.76216254    1.99043408    580.73084476  229.38870605  237.18928267      0.00000000    0.00000000    0.00000000
    1    5.54396648   -4.18278221    2.84269897     -6.19056712  -22.31739275  -44.49420531      0.00000000    0.00000000    0.00000000
    8   -5.07084378    6.83597756   -1.82809922    164.18597565  -30.86830505 -365.15891873      0.00000000    0.00000000    0.00000000
    1   -4.24629355   -7.05797483   -2.09783253   -280.54051600 -150.08368633  -45.81924336      0.00000000    0.00000000    0.00000000
    1   -5.64494852    7.11069390   -2.64785976    271.94327012 -141.74371784  392.56779323      0.00000000    0.00000000    0.00000000
    8    3.42208248   -2.55706087    3.27560348    289.76787723 -163.59872568  481.39367271      0.00000000    0.00000000    0.00000000
    1    3.72364754   -3.56988344    3.07240156   -827.39426420 1003.58735262  269.18652750      0.00000000    0.00000000    0.00000000
    1    3.29992025   -2.65329776    4.32332184    204.03409768  -40.41477262 -577.15578390      0.00000000    0.00000000    0.00000000
    8    2.48089348   -5.50488530    1.21823259   -304.94691810 -721.61500262   61.08648550      0.00000000    0.00000000    0.00000000
    1    2.18068675   -5.44715521    0.18371070    -44.49381188 -101.29383976  186.69073712      0.00000000    0.00000000    0.00000000
    1    2.52396383   -6.52884082    1.19705045     -3.35758176  549.78985680  221.75920594      0.00000000    0.00000000    0.00000000
    8   -2.83991245   -1.84666916   -5.15410184     53.21836821 -116.07444741 -414.62361423      0.00000000    0.00000000    0.00000000
    1   -3.68443979   -2.20731877   -5.59472510   1421.72648029  685.08495460 -476.12744123      0.00000000    0.00000000    0.00000000
    1   -2.42599677   -2.35634288   -5.94700745     89.46359954  442.93801937  396.77953247      0.00000000    0.00000000    0.00000000
    8   -2.70931135   -3.86336684    7.13288389    -44.79819287 -401.32746402 -415.84862664      0.00000000    0.00000000    0.00000000
    1   -2.45771566   -3.81286261    6.13855648   -178.34700660  -31.83359953  414.87088566      0.00000000    0.00000000    0.00000000
    1   -2.42621564   -4.82014147   -7.06768886   -229.85957224 1965.67559412  390.90027794      0.00000000    0.00000000    0.00000000
    8    1.89780522    5.55595201    4.82705549    333.96044040  -58.06022607  185.17723340      0.00000000    0.00000000    0.00000000
    1    2.11186038    4.54371137    4.91072487   -100.70700888  168.29682716   36.92036027      0.00000000    0.00000000    0.00000000
    1    2.45010120    5.85736717    5.59949750   -163.07275136 -215.99535659 -261.46162121      0.00000000    0.00000000    0.00000000
    8   -4.25581747    2.77880269    6.70902685    322.17286548  335.78211011  440.62209196      0.00000000    0.00000000    0.00000000
    1   -4.25096287    1.99936336   -7.09526671      7.33328739  115.76996728  -10.37123609      0.00000000    0.00000000    0.00000000
    1   -3.85948061    3.49018683   -7.13258772   -131.15067956 -570.33056763  -65.39828322      0.00000000    0.00000000    0.00000000
    8    4.25829399    4.24244124   -2.48855718    -25.24955244 -180.54730438    5.41611936      0.00000000    0.00000000    0.00000000
    1    3.55504511    3.54602987   -2.45814261    714.31104995  405.82276274 -255.85406466      0.00000000    0.00000000    0.00000000
    1    4.64878207    3.98540202   -3.40263609   -237.01754912    6.84855582  188.07956362      0.00000000    0.00000000    0.00000000
    8   -2.42170520   -2.62575377   -2.22085042   -204.71913512 -143.95872040 -215.09921723      0.00000000    0.00000000    0.00000000
    1   -3.28007877   -3.20073826   -2.10126918     11.12131662    0.55508949   -9.16671618      0.00000000    0.00000000    0.00000000
    1   -2.72439784   -2.15569326   -3.07396766     18.43677841  -61.93494777  394.11642535      0.00000000    0.00000000    0.00000000
    8    5.62371716    5.00505301    0.40601570    794.96395681  981.02667775 1532.80979772      0.00000000    0.00000000    0.00000000
    1    5.26639383    5.49804428   -0.43315469    179.00848622  -72.05112955  -20.48314047      0.00000000    0.00000000    0.00000000
    1    5.13054685    5.52926390    1.19611907    264.37502153   72.06549417 -162.67938241      0.00000000    0.00000000    0.00000000
    8    3.94976993    0.95846697   -2.73142590    -69.84657228 -123.08462266 -188.90184132      0.00000000    0.00000000    0.00000000
    1    4.24549752    1.55723791   -3.42581259      5.97049878  -21.96613700  136.32735466      0.00000000    0.00000000    0.00000000
    1    3.42298302    0.36716961   -3.39640672     98.80473137  113.51363129   97.16503836      0.00000000    0.00000000    0.00000000
    8    4.14913966   -7.12378059   -2.65861324    355.64321951  -37.28757833 -407.50789001      0.00000000    0.00000000    0.00000000
    1    3.80254752   -7.10817592   -3.64058685    280.77225431   21.22087040  239.95902750      0.00000000    0.00000000    0.00000000
    1    4.69708300    6.41415815   -2.71368637     36.47771966  180.80862089  -31.31638758      0.00000000    0.00000000    0.00000000
    8   -3.90813039    1.91496459   -2.66995594    292.52203182  -55.16887673   24.57436226      0.00000000    0.00000000    0.00000000
    1   -2.91535226    1.83878338   -2.79654971   -504.17244831  -21.37390324  -98.90114583      0.00000000    0.00000000    0.00000000
    1   -3.98367348    2.80658871   -2.20870124   -160.73742620 -354.71252064 -413.81509435      0.00000000    0.00000000    0.00000000
    8    5.56239282    4.67054431    6.05141009     41.77254139   25.28481444 -199.90357143      0.00000000    0.00000000    0.00000000
    1    5.24719512    5.15380598    5.18073252    -42.99821647 -333.05013329  186.32030220      0.00000000    0.00000000    0.00000000
    1    5.91951889    3.87023857    5.55126910    -74.21915417  237.39890739  158.83019115      0.00000000    0.00000000    0.00000000
    8    3.97697287   -0.97886007   -5.22574348   -436.05590650 -282.62791094   20.22176246      0.00000000    0.00000000    0.00000000
    1    3.07555370   -0.87860813   -4.75645695    430.27552399  -65.71057133 -298.68299220      0.00000000    0.00000000    0.00000000
    1    3.63583522   -1.71117915   -5.92145176    -45.19453093  162.69240348   62.75564462      0.00000000    0.00000000    0.00000000
    8   -0.14484649   -1.47524680    2.71709241    164.84781679  317.29426536 -211.04979368      0.00000000    0.00000000    0.00000000
    1    0.18687703   -0.54734833    2.34517843   -111.75087038 -506.78791089 -117.82485136      0.00000000    0.00000000    0.00000000
    1    0.55210346   -2.11525983    2.27830910   -290.69613042  181.72845405  377.73693720      0.00000000    0.00000000    0.00000000
    8    0.11947253   -1.87680344   -1.59385351   -632.61061233 -211.13263501  257.19309963      0.00000000    0.00000000    0.00000000
    1   -0.79179210   -1.57605297   -1.25999647     78.73823720 -367.46780739 -309.64045836      0.00000000    0.00000000    0.00000000
    1    0.60809757   -1.82054539   -0.68272364   -106.98080056  -34.70715675 -442.04392814      0.00000000    0.00000000    0.00000000
    8   -0.07504915    7.15355858   -1.08213125    112.16485010 -409.48495745  105.27783028      0.00000000    0.00000000    0.00000000
    1   -0.73815997   -7.16528252   -0.31936264    347.90801459  115.41379047 -278.18765184      0.00000000    0.00000000    0.00000000
    1    0.26478905    6.18148702   -1.00930167    180.42771403  588.12074096 -125.35452173      0.00000000    0.00000000    0.00000000
    8    2.75170307    0.66905381    6.48355029    -34.29111726 -420.41385159  154.31390736      0.00000000    0.00000000    0.00000000
    1    3.64786368    0.11950915    6.29493327   -279.93728816  125.82374010  200.44459648      0.00000000    0.00000000    0.00000000
    1    2.20997166   -0.10146376    6.89964646    115.62705337    6.99308135  -65.07345161      0.00000000    0.00000000    0.00000000
    8    6.50138216    2.16413315    4.37313671    241.94778560 -281.55251904 -159.38969922      0.00000000    0.00000000    0.00000000
    1    6.63765146    1.19803733    4.57598413   -394.56852356  140.00594427  -95.03118186      0.00000000    0.00000000    0.00000000
    1    6.92488705    2.21596470    3.44417071    -70.87780670  -91.82742640  242.56961710      0.00000000    0.00000000    0.00000000
    8    0.66980296    1.34692216    2.99921416    172.49053427  441.30191732  139.40856392      0.00000000    0.00000000    0.00000000
    1    0.69428827    1.72542059    2.04371064   -114.35571058 -147.39110928  233.85031759      0.00000000    0.00000000    0.00000000
    1    1.67829597    1.37244365    3.21549301   -225.35261129   75.25868701   51.76296950      0.00000000    0.00000000    0.00000000
    8   -6.35190400    0.87581589   -0.62946836   -337.76867320  -60.55642224 -424.86137532      0.00000000    0.00000000    0.00000000
    1    7.18081865    0.47494293   -0.88931329     32.21537867   28.43875099  -57.00445520      0.00000000    0.00000000    0.00000000
    1   -6.17460656    1.49970422   -1.42852032     22.31163135  -49.67808107  134.07471156      0.00000000    0.00000000    0.00000000
    8    0.20471615    0.08718002   -6.47157315   -176.09544397   20.93837786 -168.69927996      0.00000000    0.00000000    0.00000000
    1    0.10591700   -0.61645692   -7.21948861     25.86500755  287.90099301  270.94213548      0.00000000    0.00000000    0.00000000
    1   -0.75455585    0.50030228   -6.46422932    197.65688614  -84.52435884 -135.26605312      0.00000000    0.00000000    0.00000000
    8   -6.63381305    4.18860751   -1.33207104   -297.19892508   84.35929626 -194.67499629      0.00000000    0.00000000    0.00000000
    1    6.97593619    4.45725835   -0.75363059   1504.43956710 -593.17776676-1306.63265492      0.00000000    0.00000000    0.00000000
    1   -6.63555441    5.05981786   -1.85725362    -57.99743395  -54.28622411    0.67261804      0.00000000    0.00000000    0.00000000
    8    0.89752408    6.86337934    2.18018649   -110.62335499 -112.76534538  155.82598002      0.00000000    0.00000000    0.00000000
    1    1.78032813    6.87627086    1.64016522   -150.52162417 -198.79650139  131.28638967      0.00000000    0.00000000    0.00000000
    1    1.29488874    6.49882296    3.05609988   -126.55649764  197.82815296 -364.57000356      0.00000000    0.00000000    0.00000000
    8   -6.00070918   -4.35791454    7.06396299   -537.35478669 -410.23601702 -988.67075636      0.00000000    0.00000000    0.00000000
    1   -6.20724729   -5.25462517    6.64099219    -82.62981869  792.52933026  661.87147818      0.00000000    0.00000000    0.00000000
    1   -5.07676095   -4.16085100    6.61375903    -49.15571927  -13.10306953  -21.19375844      0.00000000    0.00000000    0.00000000
    8   -5.28382033   -3.03130445   -4.99424284   -163.34494327 -772.87047262 -899.40657596      0.00000000    0.00000000    0.00000000
    1   -5.11881488   -2.22503261   -5.59018666   -118.79909820  -80.58270369   24.45182099      0.00000000    0.00000000    0.00000000
    1   -5.10898853   -3.70159324   -5.77840762    564.59041033  417.82034448 1018.93984399      0.00000000    0.00000000    0.00000000
    8   -6.28992398   -1.16339208    2.75722368    841.71808378  167.46403663  -68.20272823      0.00000000    0.00000000    0.00000000
    1   -5.66586659   -1.29880149    1.98432033    -36.82308652   94.03279422  337.45704728      0.00000000    0.00000000    0.00000000
    1   -5.69950758   -0.52906789    3.30655021     12.85728248 -249.27631741 -307.08796683      0.00000000    0.00000000    0.00000000
    8    4.57013672   -3.65468265   -6.55919889    280.86634132 -181.71833881   67.26236930      0.00000000    0.00000000    0.00000000
    1    3.80244388   -3.97850335   -5.95938148     41.90141438  -13.35422146  -20.98951669      0.00000000    0.00000000    0.00000000
    1    5.10378804   -4.50457062   -6.81589915   -104.25927780  504.48474760  197.46721969      0.00000000    0.00000000    0.00000000
    8   -5.85987995   -3.64643813   -2.40334081   -171.74521382 -505.64590185 -521.95383649      0.00000000    0.00000000    0.00000000