 BEGIN_INFO
   #
   # This is a XCRYSDEN-Structure-File
   # aimed for Visualization of Fermi Surface
   #
   # Case: Tight-binding calculation
   #
   # Launch as: xcrysden --xsf HICOLM.XSF
   #
 END_INFO
 # estrutura final
CRYSTAL
PRIMVEC
      19.00000000       0.00000000       0.00000000
       0.00000000      19.00000000       0.00000000
       0.00000000       0.00000000      19.00000000
PRIMCOORD
  300    1
    8   -4.20228322    2.72303078   -8.57065806      1.52237123    5.27781653    2.44215653      0.00000000    0.00000000    0.00000000
    1   -4.77516522    3.53443978   -8.68637306     -0.00447496    0.12196987    0.19053426      0.00000000    0.00000000    0.00000000
    1   -4.19580022    1.92756278   -7.96472506     -0.22686928   -0.49234120    0.15596250      0.00000000    0.00000000    0.00000000
    8   -3.94296962   -8.31032946    5.94540060   -273.07835419   92.24790004  400.93519608      0.00000000    0.00000000    0.00000000
    1   -3.56496562   -9.18810646    5.65114060      1.49618572   -8.50557095   -5.11639467      0.00000000    0.00000000    0.00000000
    1   -3.57658662   -7.40475346    6.15908760      0.96941546    2.10926867   -1.64635302      0.00000000    0.00000000    0.00000000
    8   -7.11357894   -8.37094267    1.86474157     -0.04204594   -0.78036748   -0.79719105      0.00000000    0.00000000    0.00000000
    1   -7.38493194   -7.97958667    0.98543757      0.01608309    0.13815934    0.13704426      0.00000000    0.00000000    0.00000000
    1   -6.30939794   -8.84461567    2.22376057     -0.04820998    0.19791563    0.19611043      0.00000000    0.00000000    0.00000000
    8    6.30386304   -5.42758656   -3.73269358     -2.10195251   -2.82419788    9.21170791      0.00000000    0.00000000    0.00000000
    1    7.09074204   -5.99460956   -3.48923258      0.01197394    0.22141073    0.01249235      0.00000000    0.00000000    0.00000000
    1    5.44132104   -5.56511156   -4.21959558      0.59771408    0.10446221    0.06022518      0.00000000    0.00000000    0.00000000
    8    6.99917344    1.48906326    5.51028540      0.05414604   -0.10666014    0.01262815      0.00000000    0.00000000    0.00000000
    1    7.66971744    2.01091126    6.03755340     -0.03608206    0.04654383   -0.02619490      0.00000000    0.00000000    0.00000000
    1    6.43519344    1.65312726    4.70097940     -0.02523420    0.06214593   -0.00123165      0.00000000    0.00000000    0.00000000
    8   -9.16643332    5.89492973    2.44077767     -5.96403014   -6.78650394   -1.58470467      0.00000000    0.00000000    0.00000000
    1   -9.44865332    5.30177573    1.68679767      0.01310329    0.16936074   -0.03091385      0.00000000    0.00000000    0.00000000
    1   -9.24858032    6.86693673    2.66082467      0.06322412   -0.00391134   -0.59701304      0.00000000    0.00000000    0.00000000
    8   -6.07780335    8.00982459   -2.18453977      0.99487038   -0.63362857    0.53884191      0.00000000    0.00000000    0.00000000
    1   -6.54006635    7.12368059   -2.15245877      0.27512084    0.14077860   -0.18776745      0.00000000    0.00000000    0.00000000
    1   -6.34504635    8.96541959   -2.06050377     -0.25923123    0.26483925   -0.26947383      0.00000000    0.00000000    0.00000000
    8    3.06218888    9.46688496   -5.28193526     -0.16829700   -0.00278919   -0.37942977      0.00000000    0.00000000    0.00000000
    1    2.54471288   -8.67980704   -5.34557126      0.02701269   -0.09617217    0.01718556      0.00000000    0.00000000    0.00000000
    1    2.99676988    8.62412696   -4.74766526      0.00358180    0.08054986    0.10034375      0.00000000    0.00000000    0.00000000
    8   -9.12335459   -4.20133061   -7.17642408   1250.48693151  -48.51169481  923.86141314      0.00000000    0.00000000    0.00000000
    1    9.25981541   -3.47801761   -6.86609208     -2.42061479    0.02226885    0.19564901      0.00000000    0.00000000    0.00000000
    1   -9.20193859   -5.01667261   -7.75001608      0.61491089    1.43534938   -1.22690013      0.00000000    0.00000000    0.00000000
    8    5.96984820   -3.84113927    4.28357952      0.11712977    0.04420307   -0.16860279      0.00000000    0.00000000    0.00000000
    1    5.03339620   -3.49052327    4.29326252     -0.00184960   -0.05451878    0.05378769      0.00000000    0.00000000    0.00000000
    1    6.87389820   -3.47205527    4.06808452     -0.09453046   -0.02718509    0.07556058      0.00000000    0.00000000    0.00000000
    8    4.39046285   -8.62092115   -8.09104319      1.16199268   -0.74262087    0.51951391      0.00000000    0.00000000    0.00000000
    1    3.67231085   -9.31667615   -8.07886119     -0.06125786   -0.01335989    0.02899656      0.00000000    0.00000000    0.00000000
    1    5.06677785   -8.27382115   -7.44136119     -0.02904875   -0.27308775   -0.02582978      0.00000000    0.00000000    0.00000000
    8   -9.13563053    2.24161602    2.13876175     -0.22627686   -0.09813943   -0.02459443      0.00000000    0.00000000    0.00000000
    1    9.48941047    3.16864002    2.13801575      0.06940824    0.03935047    0.13164032      0.00000000    0.00000000    0.00000000
    1    9.49008647    1.31433002    2.14299575      0.08471481   -0.04720743    0.03590810      0.00000000    0.00000000    0.00000000
    8    4.51097158   -7.78750873   -2.43668301   -106.85318814  597.15539917  198.57769471      0.00000000    0.00000000    0.00000000
    1    5.45265358   -8.06474373   -2.62732001     -0.44598945   -1.06953764   -0.52482501      0.00000000    0.00000000    0.00000000
    1    3.73894058   -7.44656173   -2.97305101      0.28048359   -0.20430642   -0.06619035      0.00000000    0.00000000    0.00000000
    8    0.95669080    5.27092809    6.72248077     -0.01695144    0.04210254    0.00784576      0.00000000    0.00000000    0.00000000
    1    0.08178280    4.78962809    6.66907177      0.02290029   -0.04957006   -0.01855102      0.00000000    0.00000000    0.00000000
    1    1.86532580    5.07286809    7.09006977     -0.01252393   -0.00348107   -0.00181285      0.00000000    0.00000000    0.00000000
    8    5.67040940    9.49329399    3.52011622      0.11614530   -0.23173398    0.01922421      0.00000000    0.00000000    0.00000000
    1    4.69884340   -9.43214301    3.74476222     -0.09746060    0.16212330   -0.00040126      0.00000000    0.00000000    0.00000000
    1    6.40137940   -8.87219101    3.26903622     -0.07468119    0.08211373   -0.01581533      0.00000000    0.00000000    0.00000000
    8    1.08181097    9.46430561    0.96308463      0.03254337   -0.11833370   -0.06530705      0.00000000    0.00000000    0.00000000
    1    0.98741297   -8.54023439    0.95230563     -0.03381063    0.06765873    0.02162392      0.00000000    0.00000000    0.00000000
    1    0.52116097    8.68553461    0.68174163      0.00215338    0.04759147    0.04034230      0.00000000    0.00000000    0.00000000
    8   -7.81653869    2.61986343   -3.65713970   4338.88613949-1022.50910797 -432.67379328      0.00000000    0.00000000    0.00000000
    1   -8.13462069    3.34648543   -3.04819670     -1.93434076    3.35533271    4.40180030      0.00000000    0.00000000    0.00000000
    1   -6.94575469    2.36189143   -4.07565270      1.73866937    1.76770049   -2.51843750      0.00000000    0.00000000    0.00000000
    8   -1.48609255   -5.39560392   -6.36951220     -0.46124252   -0.12700465   -0.18585843      0.00000000    0.00000000    0.00000000
    1   -0.95229655   -6.23885892   -6.43236820      0.11313904    0.01459639   -0.04824272      0.00000000    0.00000000    0.00000000
    1   -2.05601855   -4.85713592   -6.99015920      0.48083614    0.09466528   -0.17806008      0.00000000    0.00000000    0.00000000
    8    6.44228130   -4.55963599    7.93540750      0.16170311   -0.02599100    0.31281053      0.00000000    0.00000000    0.00000000
    1    6.75284130   -3.82793499    8.54214750     -0.15609970    0.05808964   -0.18018312      0.00000000    0.00000000    0.00000000
    1    6.45385130   -5.55944999    7.94973550     -0.04474620   -0.03133078   -0.11282167      0.00000000    0.00000000    0.00000000
    8   -8.47016735   -9.30911674   -3.66305567     21.95255133  159.96690902 -106.76083181      0.00000000    0.00000000    0.00000000
    1   -7.89689035   -9.17928674   -4.47204567      0.06738600    0.10419065    0.11661295      0.00000000    0.00000000    0.00000000
    1   -9.39949035    9.36778826   -3.48434967      0.63145755   -0.12206338    0.09903199      0.00000000    0.00000000    0.00000000
    8   -6.10437186   -3.13827875   -7.92019921    -29.98765527  137.74519522  -18.26440626      0.00000000    0.00000000    0.00000000
    1   -6.63502486   -3.98223975   -7.84207021      1.55959553   -4.28600162   -0.65565699      0.00000000    0.00000000    0.00000000
    1   -5.13635986   -2.90261975   -8.00612621      1.40479330    0.46944173   -0.50046051      0.00000000    0.00000000    0.00000000
    8    1.84690373   -6.16971310   -9.52735935  -3235.14046011 2056.13489235-2788.63440640      0.00000000    0.00000000    0.00000000
    1    1.75815573   -7.16478810   -9.48360335      1.91473651    0.69244481    1.19351615      0.00000000    0.00000000    0.00000000
    1    1.21911073   -5.39330610   -9.58245035      0.58433606   -0.50492188    0.20343164      0.00000000    0.00000000    0.00000000
    8   -7.74542691    7.53948128    2.88740187      5.33735216    6.83788178    1.76314311      0.00000000    0.00000000    0.00000000
    1   -7.76949291    7.97654828    1.98831387      0.08719061    0.11417901   -0.03620495      0.00000000    0.00000000    0.00000000
    1   -8.42209091    7.24170928    3.56076987      0.48455656   -0.24355778    0.45850537      0.00000000    0.00000000    0.00000000
    8   -9.13873261    1.83591947   -7.20680157     -0.13434867   -0.14813709   -0.24546827      0.00000000    0.00000000    0.00000000
    1    9.45393039    0.93918447   -7.03385457      0.10088702    0.09729159    0.22211025      0.00000000    0.00000000    0.00000000
    1   -9.47133361    2.77681047   -7.27056957      0.02419137   -0.04183846    0.03741639      0.00000000    0.00000000    0.00000000
    8    7.22678185    0.65116818    0.08522938     -0.03908331    0.08627233    0.24648112      0.00000000    0.00000000    0.00000000
    1    6.31922285    0.78393818   -0.31311062      0.06532278   -0.04495206   -0.06620009      0.00000000    0.00000000    0.00000000
    1    7.89189185    1.22252718    0.56600538     -0.00275219    0.02968998   -0.16979127      0.00000000    0.00000000    0.00000000
    8    1.71847567   -1.53402710   -7.51418622     -0.00733044    0.02220661   -0.02947770      0.00000000    0.00000000    0.00000000
    1    1.01112167   -2.16625210   -7.83027122      0.01220925    0.01171334    0.05003361      0.00000000    0.00000000    0.00000000
    1    2.68835067   -1.59882810   -7.27943122     -0.00016378   -0.03791783    0.00861634      0.00000000    0.00000000    0.00000000
    8    2.78698416   -6.76714815   -8.71692803   3231.51120401-2055.03764575 2787.13467408      0.00000000    0.00000000    0.00000000
    1    3.41208116   -6.75957615   -7.93643903      0.02189832   -0.16891983   -0.38777729      0.00000000    0.00000000    0.00000000
    1    2.47861316   -6.10302715    9.60202997      0.06398617   -0.08758437   -0.02738701      0.00000000    0.00000000    0.00000000
    8    2.66002015   -5.17408174   -4.36833269      0.14950083   -0.24062289   -0.16318644      0.00000000    0.00000000    0.00000000
    1    1.99993415   -5.92421674   -4.40770069     -0.12370316    0.12991017    0.06392410      0.00000000    0.00000000    0.00000000
    1    3.65285215   -5.09348774   -4.28025669     -0.13641202    0.22087400    0.17846362      0.00000000    0.00000000    0.00000000
    8   -6.21032336    2.62955142    3.43654186     -1.86373356   -0.32706077   -4.05270112      0.00000000    0.00000000    0.00000000
    1   -5.67716836    3.42350742    3.72867986     -0.32762144   -0.17656694    0.12050445      0.00000000    0.00000000    0.00000000
    1   -7.02840036    2.15398442    3.75988986     -0.04201611    0.05668416   -0.09627363      0.00000000    0.00000000    0.00000000
    8   -4.55286985   -6.45248272   -5.88013281      1.52708379   -1.81820337   -3.06554000      0.00000000    0.00000000    0.00000000
    1   -5.51412985   -6.17690672   -5.87775681     -0.09894490    0.22423042    0.27601298      0.00000000    0.00000000    0.00000000
    1   -3.66999585   -5.98291972   -5.88329581     -0.14411843   -1.03730555    0.48238110      0.00000000    0.00000000    0.00000000
    8   -6.63321769    6.17856046   -6.61782043   -614.27793883-1457.39715068  368.43170045      0.00000000    0.00000000    0.00000000
    1   -5.77132269    5.75552546   -6.33827743     -0.00077364    0.62363860   -0.03977391      0.00000000    0.00000000    0.00000000
    1   -7.56584669    5.86305346   -6.79282343      0.25275620    0.17910427    0.01502734      0.00000000    0.00000000    0.00000000
    8   -2.04530510   -1.57109933   -3.58259622      1.25242482   -0.29543784    0.98661160      0.00000000    0.00000000    0.00000000
    1   -2.20402810   -0.58814733   -3.48996922      0.09524485   -0.02074121    0.57216726      0.00000000    0.00000000    0.00000000
    1   -1.24735610   -2.17379133   -3.58484822      0.06672945   -0.12997668    0.05405498      0.00000000    0.00000000    0.00000000
    8   -4.16303539   -6.62710766   -8.34600529    216.73716912   77.00615511  266.30301419      0.00000000    0.00000000    0.00000000
    1   -5.00286139   -7.07616666   -8.65097229     -0.56573762    2.18763079   -3.09126317      0.00000000    0.00000000    0.00000000
    1   -3.92943139   -5.90268966   -7.69745729     -0.69040701   -0.90174713   -0.28246934      0.00000000    0.00000000    0.00000000
    8    4.77758123   -9.29082917   -2.93372334    107.13686290 -597.29858365 -197.85483326      0.00000000    0.00000000    0.00000000
    1    5.20877223    8.90232183   -3.33749934     -0.09893007    0.02538525    0.07023830      0.00000000    0.00000000    0.00000000
    1    4.22349223   -9.10109217   -2.12319834      0.09744822    1.38596877    0.04367040      0.00000000    0.00000000    0.00000000
    8   -5.24921208   -5.71503948   -3.77618248    649.82424299 -903.35278115 -209.83188145      0.00000000    0.00000000    0.00000000
    1   -4.28483608   -5.54154448   -3.57656848      1.13392517    0.51404778   -0.20383829      0.00000000    0.00000000    0.00000000
    1   -5.93623608   -6.37972548   -3.48266048      1.31691075   -2.05554350    4.29187432      0.00000000    0.00000000    0.00000000
    8   -6.99927344   -3.64427161    2.99064504   1060.51288885 -628.23210449 -188.40780314      0.00000000    0.00000000    0.00000000
    1   -7.23480844   -3.85498761    3.93937504      1.53183079   -0.66688003    1.79844066      0.00000000    0.00000000    0.00000000
    1   -7.46141144   -3.69922161    2.10556004     -0.44731914    0.19289272    0.54060656      0.00000000    0.00000000    0.00000000
    8    7.42805198   -3.46758832   -1.26446508      0.20964337   -0.00469087    0.39510495      0.00000000    0.00000000    0.00000000
    1    6.57370998   -3.98181232   -1.18936408     -0.13096255   -0.08939817   -0.24250436      0.00000000    0.00000000    0.00000000
    1    8.40169698   -3.69218532   -1.30370308     -0.25370113    0.03984814   -0.02230541      0.00000000    0.00000000    0.00000000
    8   -2.35506465   -8.17999945   -4.10923635  -1292.54910334 3297.24438087-2451.32588368      0.00000000    0.00000000    0.00000000
    1   -1.93355865   -7.82036245   -4.94168035     -0.25363002   -0.27806095    0.49265176      0.00000000    0.00000000    0.00000000
    1   -2.33852665   -9.04710245   -3.61141535     13.95502813   -3.84517301    8.14512319      0.00000000    0.00000000    0.00000000
    8   -3.58172874   -8.44864166   -1.28293978      4.80195553  -15.61486342  -25.15964770      0.00000000    0.00000000    0.00000000
    1   -3.41362974   -7.57202166   -0.83211178      0.16607751    0.49506677    1.29441038      0.00000000    0.00000000    0.00000000
    1   -3.43595674   -9.41226766   -1.05901578      0.07949994    0.22163064    0.00402349      0.00000000    0.00000000    0.00000000
    8   -8.64777244    8.23669631   -2.68982274    -21.38316996 -160.69949503  107.36358887      0.00000000    0.00000000    0.00000000
    1   -8.12478444    7.65880431   -2.06333074     -0.05419517    0.34862298   -0.11532546      0.00000000    0.00000000    0.00000000
    1   -9.43040544    8.11196131   -3.29965274      0.36787284   -0.53636980    0.01538172      0.00000000    0.00000000    0.00000000
    8   -0.00464222    2.57886906    2.85166181      0.00210867    0.01229452    0.01129222      0.00000000    0.00000000    0.00000000
    1    0.97192078    2.37792206    2.77476381     -0.01050421    0.01096659    0.00876139      0.00000000    0.00000000    0.00000000
    1   -0.73542122    2.84707606    2.22397381      0.01434154   -0.02190973   -0.01565065      0.00000000    0.00000000    0.00000000
    8    1.08067110    1.13055775   -2.17860323     -0.03076672    0.05100062   -0.05924118      0.00000000    0.00000000    0.00000000
    1    1.30841610    0.18854975   -1.93218723      0.01028750   -0.01423921    0.00398402      0.00000000    0.00000000    0.00000000
    1    1.45929710    1.82586075   -2.78947423      0.00770076   -0.03835874    0.03997966      0.00000000    0.00000000    0.00000000
    8    4.79833984    3.68365063   -3.68771262      0.11629949    0.04646727   -0.08243063      0.00000000    0.00000000    0.00000000
    1    4.69073684    2.70421763   -3.85829462     -0.01862076   -0.08191979    0.04318178      0.00000000    0.00000000    0.00000000
    1    4.20576384    4.48854563   -3.71877462     -0.05802403    0.01778495    0.00686183      0.00000000    0.00000000    0.00000000
    8   -7.21135179   -6.72459523   -4.01146058     -6.93624563   -5.60643076   -1.10641504      0.00000000    0.00000000    0.00000000
    1   -8.08355979   -6.49089223   -3.58180758     -0.45532047    0.35606170    0.27383575      0.00000000    0.00000000    0.00000000
    1   -6.28766779   -6.34155323   -4.01879658     -1.37225680    1.47935300   -4.58903549      0.00000000    0.00000000    0.00000000
    8   -7.06225770   -9.12628572   -9.14792670   -263.18301783   70.52304731   75.19867721      0.00000000    0.00000000    0.00000000
    1   -6.70760170   -8.28266272    9.44897830      0.19628312    0.09359016    0.08388282      0.00000000    0.00000000    0.00000000
    1   -7.90037070   -9.40153872   -8.67700370     -0.13162734    0.17486965    0.22655912      0.00000000    0.00000000    0.00000000
    8   -7.84454405    2.68786303    9.12218359      0.07118144    0.47445196   -0.20462454      0.00000000    0.00000000    0.00000000
    1   -8.18327705    1.75287903    9.22722259     -0.03990989   -0.07649290    0.12138663      0.00000000    0.00000000    0.00000000
    1   -7.74478505    3.33622703    8.36743959     -0.04322207   -0.09832471   -0.03919598      0.00000000    0.00000000    0.00000000
    8   -7.52312183   -6.51823776    3.86757053    281.40751859   83.32106027 -564.89890468      0.00000000    0.00000000    0.00000000
    1   -7.48526483   -6.99380876    4.74641353     -2.26187257    1.60481256    2.47579554      0.00000000    0.00000000    0.00000000
    1   -8.18150183   -5.93314476    3.39410553      0.44043540    0.19769248    0.29548837      0.00000000    0.00000000    0.00000000
    8   -3.55162065   -4.21210431   -4.73496363      2.03804829    1.40964326   -1.02570576      0.00000000    0.00000000    0.00000000
    1   -3.50011765   -3.22282531   -4.59842963      0.08126458    0.12484281    0.40632506      0.00000000    0.00000000    0.00000000
    1   -3.49889965   -4.83410431   -5.51618363     -0.06742503    0.71141606    0.70857157      0.00000000    0.00000000    0.00000000
    8   -3.48516647   -6.61322800    8.76118527     48.43343082    8.87497836  -46.23406235      0.00000000    0.00000000    0.00000000
    1   -4.48425847   -6.64756200    8.73662527     -1.13081195   -1.04404989    1.19819716      0.00000000    0.00000000    0.00000000
    1   -2.73724647   -7.12703200    8.34096227     -0.38136108    0.07649497   -0.02686306      0.00000000    0.00000000    0.00000000
    8    5.63184603    6.18653650    4.04493685      0.06074120   -0.30227850    0.02235421      0.00000000    0.00000000    0.00000000
    1    5.20212703    6.85801750    3.44126385      0.04546039    0.22380254    0.00022856      0.00000000    0.00000000    0.00000000
    1    5.63565803    6.00121750    5.02759185     -0.02290330    0.10834157   -0.00740408      0.00000000    0.00000000    0.00000000
    8   -5.82702538    1.01989898   -8.68508353     -2.30366542   -2.27057586   -0.05507760      0.00000000    0.00000000    0.00000000
    1   -5.79245438    1.99165298   -8.91846153      0.03342101    0.25078244   -0.08890538      0.00000000    0.00000000    0.00000000
    1   -6.54393238    0.35718698   -8.46869153     -0.18760328    0.02083342    0.25543463      0.00000000    0.00000000    0.00000000
    8   -5.47232044    9.46517884    9.37064341    114.80410145  802.67330523-1221.75319522      0.00000000    0.00000000    0.00000000
    1   -4.99882544   -9.00122816   -8.92860959      0.92522993   -2.06500084   -1.75050860      0.00000000    0.00000000    0.00000000
    1   -6.09637544   -9.33651416    8.61486841     -0.22382935   -0.71736820    0.54941594      0.00000000    0.00000000    0.00000000
    8   -6.17442331   -2.16554832    4.52479700     26.26839521   62.59106587   -8.76871624      0.00000000    0.00000000    0.00000000
    1   -6.35415831   -1.19137832    4.38821800      0.21553457    0.13725139    0.02123964      0.00000000    0.00000000    0.00000000
    1   -5.36320131   -2.73663332    4.65029200      0.35327652    0.56147044   -0.83144137      0.00000000    0.00000000    0.00000000
    8   -2.06508910   -1.52564089    7.72639518     -0.03897092   -0.27002714    0.22448342      0.00000000    0.00000000    0.00000000
    1   -1.94682210   -0.69160789    8.26525318      0.01691055    0.25524316   -0.08851758      0.00000000    0.00000000    0.00000000
    1   -1.46242410   -2.16514489    7.24911518     -0.03298512    0.08321143   -0.09514360      0.00000000    0.00000000    0.00000000
    8    6.40859909    6.87511599   -8.85909314     -0.90160500    0.35343741    0.24298946      0.00000000    0.00000000    0.00000000
    1    7.26199809    6.46958499   -8.53164614      0.25812447   -0.12404997   -0.29746223      0.00000000    0.00000000    0.00000000
    1    5.44278609    6.82098599   -8.60563414      0.08126972   -0.08772045   -0.00220578      0.00000000    0.00000000    0.00000000
    8    8.32472045   -8.60167867   -4.23433580     -3.24615477    0.40583425   -0.77084484      0.00000000    0.00000000    0.00000000
    1    8.96592945   -8.44173667   -3.48384580      0.51973523    0.59287058    0.10861588      0.00000000    0.00000000    0.00000000
    1    7.82111045   -8.03206767   -4.88386380     -0.00339091    0.09222249   -0.00182432      0.00000000    0.00000000    0.00000000
    8    8.56758961   -4.46788762   -7.80465796  -1693.88734206 -345.68468260 -813.23375263      0.00000000    0.00000000    0.00000000
    1    8.11289261   -4.27308962   -8.67372196     -0.04312848    0.08563423   -0.05351177      0.00000000    0.00000000    0.00000000
    1    9.00234261   -5.26350062   -7.38280896     -1.04918222    0.21303082    1.16183658      0.00000000    0.00000000    0.00000000
    8   -3.46581294   -6.90723148    5.22061393    129.88241517  380.91252705 -194.03425582      0.00000000    0.00000000    0.00000000
    1   -3.78406394   -7.85498148    5.19932193     -1.55968920   -3.33372912    3.18439057      0.00000000    0.00000000    0.00000000
    1   -3.89534394   -6.00422748    5.22797193     -0.24717634    0.04022462   -0.26905833      0.00000000    0.00000000    0.00000000
    8   -5.33448222    8.55257435   -8.43516189   -327.59501942-1017.35567746 1081.06408886      0.00000000    0.00000000    0.00000000
    1   -5.96014122    7.83058935   -8.13976889     -1.21626793    2.90577823    0.40796224      0.00000000    0.00000000    0.00000000
    1   -5.18545122   -9.48591165   -8.20441089      0.10037810   -2.84521834    0.60096067      0.00000000    0.00000000    0.00000000
    8   -3.33571174   -6.18044431    0.82653358    938.04170484 1855.09131513  584.88701542      0.00000000    0.00000000    0.00000000
    1   -4.15315474   -6.75459831    0.78071458      2.33451245   -5.20432425   -2.07579665      0.00000000    0.00000000    0.00000000
    1   -3.14402174   -5.21442831    0.99984258     -0.07613045   -0.36970370    0.02529726      0.00000000    0.00000000    0.00000000
    8   -8.30310300   -2.87092686    3.16068663  -1068.02283965  631.71815845  137.29470173      0.00000000    0.00000000    0.00000000
    1   -7.41819300   -2.42247586    3.28635463      1.46802259   -1.34100069   -0.06648887      0.00000000    0.00000000    0.00000000
    1   -9.26214900   -2.61820886    3.28847763      0.17991130    0.10388997   -0.09505869      0.00000000    0.00000000    0.00000000
    8   -0.21145427   -6.21278173    6.52884596      0.07546217    0.12766646    0.26984065      0.00000000    0.00000000    0.00000000
    1   -0.34664127   -7.11582173    6.93653496      0.01768359   -0.02112648   -0.17652287      0.00000000    0.00000000    0.00000000
    1   -0.02282627   -5.29127373    6.86826996     -0.04299522   -0.09727358   -0.13148910      0.00000000    0.00000000    0.00000000
    8   -8.51474940   -9.13538867   -7.04796062     13.83089318   -6.22922600   18.22453134      0.00000000    0.00000000    0.00000000
    1   -9.44310040    9.49306533   -7.03869362     -0.25068849   -1.38671603    2.60869076      0.00000000    0.00000000    0.00000000
    1   -7.59071840    9.49406333   -6.95399962      0.28687979    0.13592142    0.02653578      0.00000000    0.00000000    0.00000000
    8   -1.24543533    4.91477416   -5.84398991   -290.53263086  131.44384134 -612.43464961      0.00000000    0.00000000    0.00000000
    1   -0.78432733    4.17277816   -6.33059791     -0.16069435    0.09050675    0.37676753      0.00000000    0.00000000    0.00000000
    1   -2.12605333    5.38326316   -5.91467891      0.13332768   -0.20238962    0.25245580      0.00000000    0.00000000    0.00000000
    8    0.04440950   -2.55964303    2.91959308      0.00947479    0.07800448   -0.03079069      0.00000000    0.00000000    0.00000000
    1   -0.11078750   -2.48589103    1.93448308      0.00569976   -0.03395863    0.02886146      0.00000000    0.00000000    0.00000000
    1    0.80588550   -2.82776003    3.50970608     -0.01258410   -0.05554779   -0.00493644      0.00000000    0.00000000    0.00000000
    8   -6.87148066   -3.89893242    4.93417585    -20.50364456  -65.47518241   58.35996656      0.00000000    0.00000000    0.00000000
    1   -5.97703166   -3.55067042    5.21460385     -0.92692074    0.18149004    0.08173337      0.00000000    0.00000000    0.00000000
    1   -7.79085366   -3.51950742    4.83045885     -0.40552747    0.74401956    0.31538995      0.00000000    0.00000000    0.00000000
    8   -3.46633950    1.54134248    8.51375950      1.60560986   -2.24265919   -3.49034140      0.00000000    0.00000000    0.00000000
    1   -3.45794050    2.47864348    8.86213150     -0.28804152    0.01140942    0.69403215      0.00000000    0.00000000    0.00000000
    1   -3.92353850    0.68665948    8.75963550     -0.09271717    0.25786645    0.08836527      0.00000000    0.00000000    0.00000000
    8    6.71334807   -4.85539866   -5.83057400      1.11079995    1.90373283   -8.85391319      0.00000000    0.00000000    0.00000000
    1    7.66070707   -4.76899366   -6.13881400     -0.00806262    0.40503120   -0.24913569      0.00000000    0.00000000    0.00000000
    1    5.85827707   -5.19680066   -6.22078500      0.19822435    0.19169017   -0.07077564      0.00000000    0.00000000    0.00000000
    8   -9.15463866    2.90518789   -3.48857463  -4552.51846293  972.75475189  575.14659952      0.00000000    0.00000000    0.00000000
    1    9.09223234    3.48898589   -3.79179663      0.11185899   -0.34730015   -0.17183914      0.00000000    0.00000000    0.00000000
    1   -8.15640966    2.96407789   -3.48242963     11.65662707  -17.37271912  -11.79735974      0.00000000    0.00000000    0.00000000
    8   -5.10111175    2.88173451    5.48133065      1.91518136    0.92153978    3.74563452      0.00000000    0.00000000    0.00000000
    1   -4.45889475    3.17156851    4.77173865      0.23892063   -0.30238280    0.15636858      0.00000000    0.00000000    0.00000000
    1   -5.83878975    3.31078451    6.00259065      0.09218334   -0.09857645    0.00817842      0.00000000    0.00000000    0.00000000
    8   -3.80020506    9.10854392   -8.38495595  -3028.43591996 1917.65679138 1965.71911877      0.00000000    0.00000000    0.00000000
    1   -3.54626106   -8.93971408   -8.21271795      0.58692442   -0.46513221    0.02286597      0.00000000    0.00000000    0.00000000
    1   -3.61123506    8.43100192   -9.09572695      2.80683850    1.26534253    1.14748403      0.00000000    0.00000000    0.00000000
    8   -8.63382788    9.46945933    7.31010219     -0.23229832    0.19180476    0.22053668      0.00000000    0.00000000    0.00000000
    1   -8.18051188   -8.73191267    7.70591119      0.15684612   -0.13288079   -0.17558035      0.00000000    0.00000000    0.00000000
    1    9.46105612    9.26815433    6.93565919     -0.03772017   -0.10105305   -0.11860543      0.00000000    0.00000000    0.00000000
    8    8.02982624   -1.66679869   -6.64000564      0.18410884    0.08978930   -0.17573124      0.00000000    0.00000000    0.00000000