 BEGIN_INFO
   #
   # This is a XCRYSDEN-Structure-File
   # aimed for Visualization of Fermi Surface
   #
   # Case: Tight-binding calculation
   #
   # Launch as: xcrysden --xsf HICOLM.XSF
   #
 END_INFO
 # estrutura final
CRYSTAL
PRIMVEC
      19.00000000       0.00000000       0.00000000
       0.00000000      19.00000000       0.00000000
       0.00000000       0.00000000      19.00000000
PRIMCOORD
  300    1
    8   -4.17480552    2.82559700   -8.54288230      0.58219825    2.02134859    0.01498156      0.00000000    0.00000000    0.00000000
    1   -4.78175493    3.60075849   -8.59825790     -0.03817970    0.20159448    0.25855370      0.00000000    0.00000000    0.00000000
    1   -4.23834946    1.83445542   -7.92324242     -0.26242534   -0.52558782    0.29405867      0.00000000    0.00000000    0.00000000
    8   -4.00244428   -8.29718685    6.03157658    -87.70444226   12.91456466  125.23845628      0.00000000    0.00000000    0.00000000
    1   -3.54450491   -9.28339395    5.59211855      1.90123334   -9.30300041   -5.31989522      0.00000000    0.00000000    0.00000000
    1   -3.53528074   -7.32134538    6.09481109      1.21902686    2.66391099   -1.78837516      0.00000000    0.00000000    0.00000000
    8   -7.11789694   -8.44931026    1.78692132     -0.04094923   -0.75694593   -0.73405886      0.00000000    0.00000000    0.00000000
    1   -7.37916200   -7.90308785    1.06504980      0.00703243    0.17915767    0.19379106      0.00000000    0.00000000    0.00000000
    1   -6.33304206   -8.76531251    2.29698477     -0.08255059    0.23817564    0.20440423      0.00000000    0.00000000    0.00000000
    8    6.27927195   -5.45836970   -3.62946083     -0.66397405   -0.74198089    2.71301834      0.00000000    0.00000000    0.00000000
    1    7.10429959   -5.88613674   -3.47525133      0.02514638    0.08805951    0.02002387      0.00000000    0.00000000    0.00000000
    1    5.55078452   -5.55025045   -4.21795653      0.42876355    0.04329055   -0.04114832      0.00000000    0.00000000    0.00000000
    8    7.04290608    1.39250184    5.54041485      0.05706411   -0.13912859    0.06623587      0.00000000    0.00000000    0.00000000
    1    7.60863141    2.08544149    5.98345389     -0.04970104    0.05889645   -0.05219728      0.00000000    0.00000000    0.00000000
    1    6.40865801    1.75627124    4.67454736     -0.01293002    0.08572319   -0.03712840      0.00000000    0.00000000    0.00000000
    8   -9.23702822    5.81128396    2.42602317     -1.62347096   -2.08294146   -0.19753351      0.00000000    0.00000000    0.00000000
    1   -9.45948251    5.40046965    1.64591163     -0.03160445    0.06177228   -0.05207549      0.00000000    0.00000000    0.00000000
    1   -9.22932741    6.88327537    2.55363787      0.11537278    0.14759439   -0.44415412      0.00000000    0.00000000    0.00000000
    8   -5.99445774    7.95347996   -2.13847779      0.59831480   -0.42862149    0.33284227      0.00000000    0.00000000    0.00000000
    1   -6.45999434    7.16774067   -2.21453999      0.16150787    0.09866146   -0.14788124      0.00000000    0.00000000    0.00000000
    1   -6.40681218    9.03133850   -2.12431261     -0.21474595    0.24478592   -0.22465022      0.00000000    0.00000000    0.00000000
    8    3.00993744    9.46654457   -5.37935624     -0.19562200   -0.00185758   -0.32353847      0.00000000    0.00000000    0.00000000
    1    2.60633227   -8.76179808   -5.30992241      0.06694513   -0.04371156    0.03791725      0.00000000    0.00000000    0.00000000
    1    3.02656650    8.68593086   -4.66225622      0.08075149    0.08405756    0.12530738      0.00000000    0.00000000    0.00000000
    8   -9.05956988   -4.21775826   -7.11458929    190.82141488 -135.60319520  276.29451930      0.00000000    0.00000000    0.00000000
    1    9.13433079   -3.46636547   -6.87801523     -2.18868504    0.52043956   -0.14792139      0.00000000    0.00000000    0.00000000
    1   -9.21197747   -4.94494209   -7.84265253     -0.30420645    0.87972650   -1.35218666      0.00000000    0.00000000    0.00000000
    8    6.02635313   -3.83112770    4.18949409      0.08974203   -0.00619642   -0.17647639      0.00000000    0.00000000    0.00000000
    1    5.03674580   -3.54980846    4.38566683      0.00386925   -0.02546405    0.06302331      0.00000000    0.00000000    0.00000000
    1    6.79737788   -3.47647892    4.14666491     -0.06056866    0.01350008    0.08076728      0.00000000    0.00000000    0.00000000
    8    4.49367505   -8.64047549   -8.05751593      0.58554063   -0.10655695    0.11312280      0.00000000    0.00000000    0.00000000
    1    3.63907882   -9.37063234   -7.98930216     -0.02800393   -0.06313856    0.13601092      0.00000000    0.00000000    0.00000000
    1    5.04623188   -8.38248752   -7.44305565     -0.05755871   -0.24073679    0.00664419      0.00000000    0.00000000    0.00000000
    8   -9.22934272    2.18569626    2.12401236     -0.16952123   -0.13488968   -0.04326231      0.00000000    0.00000000    0.00000000
    1    9.53631980    3.22604082    2.21793412      0.06552606    0.13343703    0.11048314      0.00000000    0.00000000    0.00000000
    1    9.56483874    1.28072438    2.13798938      0.04214066    0.05436866   -0.03113647      0.00000000    0.00000000    0.00000000
    8    4.49328343   -7.69050532   -2.40396669    -22.65816906  121.01670752   41.38637389      0.00000000    0.00000000    0.00000000
    1    5.42557215   -8.16434920   -2.68118647     -0.20345565   -1.11271320   -0.68191245      0.00000000    0.00000000    0.00000000
    1    3.82828708   -7.49718440   -3.02192068      0.28173178   -0.08127401   -0.22461736      0.00000000    0.00000000    0.00000000
    8    0.92357710    5.37588612    6.72326613     -0.01645611    0.05478364   -0.00937171      0.00000000    0.00000000    0.00000000
    1    0.11645746    4.69120265    6.63262210      0.01638264   -0.06109406   -0.02307580      0.00000000    0.00000000    0.00000000
    1    1.76643405    5.02533878    7.08633133     -0.01020461   -0.00744408    0.00091859      0.00000000    0.00000000    0.00000000
    8    5.70468948    9.38849925    3.52531702      0.08283335   -0.40391193    0.00990638      0.00000000    0.00000000    0.00000000
    1    4.64791087   -9.33423778    3.75114201     -0.10108373    0.22017584    0.02801547      0.00000000    0.00000000    0.00000000
    1    6.33578413   -8.78384267    3.25901577     -0.07464996    0.11957105   -0.00514564      0.00000000    0.00000000    0.00000000
    8    1.10490642    9.37634126    0.90056891      0.01814113   -0.07714644   -0.07080472      0.00000000    0.00000000    0.00000000
    1    0.94436614   -8.44313833    0.98290559     -0.02108232    0.05716193    0.01726551      0.00000000    0.00000000    0.00000000
    1    0.52953460    8.75813638    0.76421652      0.00661063    0.02678558    0.04191121      0.00000000    0.00000000    0.00000000
    8   -7.83704489    2.62483776   -3.65515367   6786.73263305-1445.94468795 -796.00564116      0.00000000    0.00000000    0.00000000
    1   -8.36946609    3.38113344   -3.00907648     -4.18007211   -0.20185210    0.36353784      0.00000000    0.00000000    0.00000000
    1   -7.00014169    2.42462843   -4.13536789      2.58326113    1.18807412   -2.43013033      0.00000000    0.00000000    0.00000000
    8   -1.58121461   -5.42672500   -6.41605350     -0.17855663   -0.07436333   -0.10481111      0.00000000    0.00000000    0.00000000
    1   -0.87678107   -6.24497804   -6.50718819      0.02113960   -0.01646723   -0.06635351      0.00000000    0.00000000    0.00000000
    1   -1.95723078   -4.84710197   -7.03807522      0.27415585   -0.00720760   -0.17560357      0.00000000    0.00000000    0.00000000
    8    6.49709183   -4.55389690    8.03084196      0.18723193    0.05848707    0.29038225      0.00000000    0.00000000    0.00000000
    1    6.68096650   -3.80774380    8.46066694     -0.16196009    0.03630114   -0.17850127      0.00000000    0.00000000    0.00000000
    1    6.42185216   -5.61031218    7.85802011     -0.03374963   -0.09314048   -0.11148220      0.00000000    0.00000000    0.00000000
    8   -8.45689021   -9.21927858   -3.72263317      5.41817127   34.30643198  -22.64055985      0.00000000    0.00000000    0.00000000
    1   -7.85204624   -9.08789067   -4.44911167      0.09313102    0.24164119   -0.05400383      0.00000000    0.00000000    0.00000000
    1   -9.30046643    9.33077244   -3.45209990      0.52199661   -0.28341138    0.25521885      0.00000000    0.00000000    0.00000000
    8   -6.06217856   -3.04869786   -7.94556581     51.51449843   35.65803282  -17.66660322      0.00000000    0.00000000    0.00000000
    1   -6.62581647   -4.09270251   -7.84789000     -0.34087010   -3.70675877    0.06528883      0.00000000    0.00000000    0.00000000
    1   -5.03719635   -2.86681521   -8.03850204      1.57473214    0.64646195   -0.48194131      0.00000000    0.00000000    0.00000000
    8    1.89087593   -6.19748017   -9.48960527  ************** 7301.58161240-9886.60543487      0.00000000    0.00000000    0.00000000
    1    1.96115895   -7.23058543   -9.30942575      2.26808554    0.07556608    1.97044002      0.00000000    0.00000000    0.00000000
    1    1.23514436   -5.44103208   -9.45241739     -0.91991484    0.33425283    0.18990849      0.00000000    0.00000000    0.00000000
    8   -7.68212364    7.62740905    2.90919341      1.13762552    1.80054409    0.42575498      0.00000000    0.00000000    0.00000000
    1   -7.71290561    8.06615412    1.95754937      0.14663853    0.25957134   -0.09406648      0.00000000    0.00000000    0.00000000
    1   -8.35637458    7.19420952    3.63536196      0.27654772   -0.28530203    0.38433353      0.00000000    0.00000000    0.00000000
    8   -9.16903789    1.77629711   -7.29436464     -0.05969650   -0.22701704   -0.30197377      0.00000000    0.00000000    0.00000000
    1    9.49027995    0.97217127   -6.93486800      0.06835937    0.06125047    0.21117090      0.00000000    0.00000000    0.00000000
    1   -9.45580834    2.76614482   -7.19383105     -0.01070836    0.13784838   -0.05170615      0.00000000    0.00000000    0.00000000
    8    7.18666918    0.68401845    0.18152336     -0.10103634    0.04442282    0.12246628      0.00000000    0.00000000    0.00000000
    1    6.40425181    0.73389020   -0.36094097      0.08992813   -0.04909532   -0.02655685      0.00000000    0.00000000    0.00000000
    1    7.92629402    1.26588351    0.47495035      0.07389846    0.06749677   -0.06226259      0.00000000    0.00000000    0.00000000
    8    1.77051918   -1.47441096   -7.57014665      0.03184450    0.01514172    0.00253375      0.00000000    0.00000000    0.00000000
    1    1.00150723   -2.12736457   -7.72926915     -0.01288752    0.01347155    0.02429483      0.00000000    0.00000000    0.00000000
    1    2.66568165   -1.70577183   -7.27272906     -0.01497927   -0.03787577   -0.00320933      0.00000000    0.00000000    0.00000000
    8    2.74313564   -6.73942017   -8.75470108  11461.63159911-7291.74102216 9884.61906557      0.00000000    0.00000000    0.00000000
    1    3.29288108   -6.67350192   -8.14858897      0.05753107    0.07743127   -0.29540628      0.00000000    0.00000000    0.00000000
    1    2.25957068   -6.07295182    9.50860289    -29.41479160   -9.90404750   -0.17148267      0.00000000    0.00000000    0.00000000
    8    2.70393357   -5.24966858   -4.43549359      0.09011468   -0.17317989   -0.18891712      0.00000000    0.00000000    0.00000000
    1    1.93344662   -5.84934642   -4.36123447     -0.08505552    0.10129915    0.07512332      0.00000000    0.00000000    0.00000000
    1    3.61495614   -5.02454277   -4.20344824     -0.05835844    0.13501852    0.20507628      0.00000000    0.00000000    0.00000000
    8   -6.25001059    2.62220759    3.33366028     -0.35273188   -0.08294160   -1.23604459      0.00000000    0.00000000    0.00000000
    1   -5.76875198    3.37936497    3.77185459     -0.23211521   -0.09517944    0.14485051      0.00000000    0.00000000    0.00000000
    1   -7.08563924    2.19705967    3.67645928     -0.08813812    0.04383007   -0.09491008      0.00000000    0.00000000    0.00000000
    8   -4.50448535   -6.53034475   -5.93267980      0.62685620   -1.53723957    0.05728305      0.00000000    0.00000000    0.00000000
    1   -5.51490763   -6.09958231   -5.80157142      0.08441210    0.18142864    0.13456636      0.00000000    0.00000000    0.00000000
    1   -3.67098560   -6.08393497   -5.83917585      0.09313825   -0.65982524    0.26403442      0.00000000    0.00000000    0.00000000
    8   -6.66781919    6.09645121   -6.59726221   -136.71665967 -325.81560943   79.66442497      0.00000000    0.00000000    0.00000000
    1   -5.76482685    5.88306656   -6.34262556      0.00458417    0.58730596    0.04109043      0.00000000    0.00000000    0.00000000
    1   -7.47813936    5.95525306   -6.79805059      0.17702252    0.22049603   -0.01952131      0.00000000    0.00000000    0.00000000
    8   -1.94812311   -1.56870789   -3.54942572      0.17927436    0.10608975   -0.11256940      0.00000000    0.00000000    0.00000000
    1   -2.18477108   -0.58028032   -3.38153211      0.09635221    0.09122831    0.52854492      0.00000000    0.00000000    0.00000000
    1   -1.19718218   -2.26531656   -3.54858248      0.07835896   -0.13808804    0.05031795      0.00000000    0.00000000    0.00000000
    8   -4.09600012   -6.60836524   -8.26484384     49.39000019    7.21231985   56.03687365      0.00000000    0.00000000    0.00000000
    1   -5.03257800   -7.03043226   -8.74945648     -1.29489004    1.03350838   -3.34015772      0.00000000    0.00000000    0.00000000
    1   -4.01326304   -5.97566916   -7.70484030     -0.75724637   -0.41887684    0.15309989      0.00000000    0.00000000    0.00000000
    8    4.79528019   -9.38784910   -2.96610620     22.56768269 -121.26608336  -40.68426366      0.00000000    0.00000000    0.00000000
    1    5.16827987    8.87150812   -3.25493592      0.03156898   -0.08871594    0.07569758      0.00000000    0.00000000    0.00000000
    1    4.22660975   -8.98514889   -2.10943892     -0.00321510    1.43745304    0.27203431      0.00000000    0.00000000    0.00000000
    8   -5.19317491   -5.79345934   -3.79355942    127.04136537 -179.60799885  -36.30998509      0.00000000    0.00000000    0.00000000
    1   -4.19055950   -5.48959208   -3.58606364      1.27893359    0.46358049   -0.08980275      0.00000000    0.00000000    0.00000000
    1   -5.93388140   -6.42841199   -3.38792706     -0.23436618   -2.24062849    2.76294724      0.00000000    0.00000000    0.00000000
    8   -6.91727196   -3.69242547    2.97348961    223.87955130 -130.43963253  -56.65424263      0.00000000    0.00000000    0.00000000
    1   -7.18734729   -3.88642850    4.02593050      1.36448252   -1.20535389    2.47080335      0.00000000    0.00000000    0.00000000
    1   -7.55372788   -3.66581554    2.17814673     -0.61105647    0.15350429    0.37148860      0.00000000    0.00000000    0.00000000
    8    7.47977298   -3.46103806   -1.16703473      0.18543123    0.04955309    0.34937851      0.00000000    0.00000000    0.00000000
    1    6.52303178   -4.02526360   -1.27735587     -0.15951671   -0.15595932   -0.25595188      0.00000000    0.00000000    0.00000000
    1    8.29189132   -3.68146478   -1.31100901     -0.22471693    0.00659315   -0.01225245      0.00000000    0.00000000    0.00000000
    8   -2.35999355   -8.16751801   -4.11841197   -948.90676772 2421.47181145-1800.05994720      0.00000000    0.00000000    0.00000000
    1   -1.95014960   -7.94245495   -4.79998629     -0.26768429   -0.29433852    0.50709373      0.00000000    0.00000000    0.00000000
    1   -2.21503050   -9.13779988   -3.50517812     30.61292388  -10.58253228   19.87644780      0.00000000    0.00000000    0.00000000
    8   -3.56453911   -8.50580538   -1.37577840      3.12705454   -9.84275436  -16.50077461      0.00000000    0.00000000    0.00000000
    1   -3.40844002   -7.53949640   -0.72653850     -0.07585851    0.32693590    1.54528311      0.00000000    0.00000000    0.00000000
    1   -3.40575113   -9.30658031   -1.04729595      0.05038139    0.22435072    0.05038131      0.00000000    0.00000000    0.00000000
    8   -8.66062181    8.14708745   -2.62994544     -5.50565331  -34.75894063   23.18450617      0.00000000    0.00000000    0.00000000
    1   -8.13644060    7.76625220   -2.09380506     -0.01092519    0.16374650   -0.02940923      0.00000000    0.00000000    0.00000000
    1   -9.38582433    8.01300459   -3.30368472      0.12758248   -0.55822741   -0.04642558      0.00000000    0.00000000    0.00000000
    8   -0.05499613    2.63701795    2.92877016     -0.02440347    0.02435430    0.03970273      0.00000000    0.00000000    0.00000000
    1    0.88834105    2.43383810    2.80611319     -0.00242943    0.00004261   -0.00145260      0.00000000    0.00000000    0.00000000
    1   -0.69010345    2.77749685    2.15168799      0.01195496   -0.01751943   -0.02549366      0.00000000    0.00000000    0.00000000
    8    1.06881761    1.20139895   -2.26127068      0.01042808    0.06330525   -0.06808037      0.00000000    0.00000000    0.00000000
    1    1.32626187    0.09784209   -1.87682069     -0.00196192   -0.02553890    0.01811108      0.00000000    0.00000000    0.00000000
    1    1.43675525    1.75400846   -2.71213868     -0.03108445   -0.03534829    0.03610987      0.00000000    0.00000000    0.00000000
    8    4.88622701    3.70559572   -3.75110716      0.23570879    0.04844673   -0.17806442      0.00000000    0.00000000    0.00000000
    1    4.64844359    2.61501713   -3.81012430     -0.06788273   -0.09064936    0.04964755      0.00000000    0.00000000    0.00000000
    1    4.10365918    4.52392951   -3.69570410     -0.11236759    0.03695195    0.03366169      0.00000000    0.00000000    0.00000000
    8   -7.29218115   -6.79812989   -4.02771959     -2.31222080   -2.48611688   -0.65747946      0.00000000    0.00000000    0.00000000
    1   -8.16322502   -6.42788837   -3.53813967     -0.74242953    0.58657417    0.37447920      0.00000000    0.00000000    0.00000000
    1   -6.30028953   -6.30084582   -4.12016325      0.15537315    1.23252250   -2.53964542      0.00000000    0.00000000    0.00000000
    8   -7.16240527   -9.10068145   -9.11798602    -99.75955682   24.05515266   31.44845509      0.00000000    0.00000000    0.00000000
    1   -6.62608280   -8.21137794    9.43857955      0.26256887    0.31168403   -0.15397627      0.00000000    0.00000000    0.00000000
    1   -7.94571935   -9.34085162   -8.59927433     -0.14013592    0.18247492    0.23400018      0.00000000    0.00000000    0.00000000
    8   -7.81529804    2.78715405    9.08379326      0.20832347    0.56492794   -0.20583734      0.00000000    0.00000000    0.00000000
    1   -8.21705701    1.69851383    9.31725811     -0.07549293   -0.11235421    0.20735295      0.00000000    0.00000000    0.00000000
    1   -7.79480930    3.24168547    8.33984654     -0.07621291   -0.13257020   -0.02496650      0.00000000    0.00000000    0.00000000
    8   -7.47734283   -6.50486481    3.77518670     56.67566115   16.30381817 -115.72491307      0.00000000    0.00000000    0.00000000
    1   -7.55504487   -6.95182673    4.82939075     -2.51892729    1.44477627    3.07860747      0.00000000    0.00000000    0.00000000
    1   -8.10182373   -5.88475975    3.45424540      0.41383050    0.30532397    0.26634632      0.00000000    0.00000000    0.00000000
    8   -3.46951928   -4.14883157   -4.77277961      0.73550644    0.69178507   -0.27714129      0.00000000    0.00000000    0.00000000
    1   -3.47460019   -3.18851351   -4.49659779      0.09314734    0.11344432    0.30043211      0.00000000    0.00000000    0.00000000
    1   -3.49592568   -4.75097115   -5.44385685      0.08146375    0.33856446    0.23854637      0.00000000    0.00000000    0.00000000
    8   -3.40634561   -6.59892188    8.68593441     18.00864633    3.18826540  -17.27601161      0.00000000    0.00000000    0.00000000
    1   -4.55759890   -6.70715181    8.79467454     -1.69822805   -1.23934931    0.98317718      0.00000000    0.00000000    0.00000000
    1   -2.84507690   -7.10070750    8.33677824     -0.36201825    0.09832725   -0.00109059      0.00000000    0.00000000    0.00000000
    8    5.64928416    6.07785603    4.05607876      0.05373103   -0.40395744    0.04747947      0.00000000    0.00000000    0.00000000
    1    5.22729768    6.96571143    3.44108170      0.08803015    0.34725448    0.00017110      0.00000000    0.00000000    0.00000000
    1    5.61413116    6.10841144    5.01089529     -0.02737727    0.15094013   -0.03141160      0.00000000    0.00000000    0.00000000
    8   -5.92379263    0.99312589   -8.67706413     -0.53886833    0.31243289    0.14353888      0.00000000    0.00000000    0.00000000
    1   -5.80183148    2.09447000   -8.95589559     -0.09170715    0.30411198   -0.11682382      0.00000000    0.00000000    0.00000000
    1   -6.60934915    0.35144373   -8.37996821     -0.19636364   -0.04868666    0.26204622      0.00000000    0.00000000    0.00000000
    8   -5.46067137    9.51480979    9.29202006     68.64482837  192.49905190 -320.26525524      0.00000000    0.00000000    0.00000000
    1   -4.96021695   -9.09511374   -8.97265346      1.06993791   -2.44034658   -1.05177428      0.00000000    0.00000000    0.00000000
    1   -6.13428666   -9.42656164    8.69442583     -0.38849897   -0.68244280    0.57333318      0.00000000    0.00000000    0.00000000
    8   -6.13231499   -2.06470105    4.51413550      7.34057206   17.82809744   -1.20476596      0.00000000    0.00000000    0.00000000
    1   -6.27109162   -1.12007354    4.39646741      0.21783981    0.23453482    0.02035565      0.00000000    0.00000000    0.00000000
    1   -5.31442963   -2.68738642    4.56507677      0.47014142    0.31363479   -0.64269708      0.00000000    0.00000000    0.00000000
    8   -2.07117612   -1.61333091    7.79341424      0.00074920   -0.29315185    0.21102580      0.00000000    0.00000000    0.00000000
    1   -1.95355948   -0.58675498    8.23176675     -0.06019222    0.31612627   -0.09215083      0.00000000    0.00000000    0.00000000
    1   -1.49638596   -2.08914317    7.17659064     -0.04120565    0.08563162   -0.06709443      0.00000000    0.00000000    0.00000000
    8    6.31022388    6.92298474   -8.84548728     -0.62361306    0.33710037    0.00811704      0.00000000    0.00000000    0.00000000
    1    7.34443501    6.43665896   -8.59655435      0.42469723   -0.13395891   -0.23668467      0.00000000    0.00000000    0.00000000
    1    5.52556515    6.74869987   -8.59534264      0.13503419   -0.09678554    0.02579444      0.00000000    0.00000000    0.00000000
    8    8.21718447   -8.59306808   -4.25843194     -2.24237272    0.07165778   -0.46941576      0.00000000    0.00000000    0.00000000
    1    9.05109233   -8.37243945   -3.47641934      0.71156489    0.40894325   -0.00792144      0.00000000    0.00000000    0.00000000
    1    7.85378842   -7.93071863   -4.87602758      0.04531309    0.04129737    0.01289658      0.00000000    0.00000000    0.00000000
    8    8.48994306   -4.48294862   -7.84267372   -410.17630664  -75.31882713 -206.69113613      0.00000000    0.00000000    0.00000000
    1    8.06810700   -4.23343333   -8.74204840     -0.22119735    0.02501925   -0.24507248      0.00000000    0.00000000    0.00000000
    1    8.97249117   -5.25140384   -7.27623111     -0.23222490   -0.02264243    1.04624893      0.00000000    0.00000000    0.00000000
    8   -3.43322795   -6.81829310    5.17293492     44.92658118  115.12952543  -64.45637353      0.00000000    0.00000000    0.00000000
    1   -3.82320059   -7.92911094    5.27780252     -2.06460683   -3.35149365    4.12156142      0.00000000    0.00000000    0.00000000
    1   -3.98053256   -5.98812596    5.16122469     -0.33896240    0.09931151   -0.21416427      0.00000000    0.00000000    0.00000000
    8   -5.36890315    8.48985550   -8.37786695   -261.11736812 -277.12766844  158.53139436      0.00000000    0.00000000    0.00000000
    1   -5.99401057    7.93553836   -8.10997348     -0.57519533    1.42408591    1.28806072      0.00000000    0.00000000    0.00000000
    1   -5.17737639   -9.55846949   -8.15403718      0.64488544   -2.24832697    2.96664569      0.00000000    0.00000000    0.00000000
    8   -3.29938447   -6.10892420    0.84903875    229.84014396  453.24060167  142.19316874      0.00000000    0.00000000    0.00000000
    1   -4.12774749   -6.87394216    0.73350616      1.90876362   -6.78932663   -2.80784233      0.00000000    0.00000000    0.00000000
    1   -3.18459103   -5.34412155    1.00270898     -0.10227624   -0.31269476    0.04691118      0.00000000    0.00000000    0.00000000
    8   -8.38577310   -2.82229949    3.17134430   -226.54892421  132.82582145   29.55899844      0.00000000    0.00000000    0.00000000
    1   -7.32253380   -2.50139942    3.27844366      1.59322160   -1.23817570   -0.15955818      0.00000000    0.00000000    0.00000000
    1   -9.18613645   -2.55643136    3.23205211      0.06062191    0.15884875   -0.11132475      0.00000000    0.00000000    0.00000000
    8   -0.15826144   -6.16397866    6.61109513      0.17677065    0.11999416    0.15486736      0.00000000    0.00000000    0.00000000
    1   -0.36045801   -7.12989638    6.82896722     -0.04606868   -0.01020080   -0.10793096      0.00000000    0.00000000    0.00000000
    1   -0.07940953   -5.35472387    6.79929942     -0.10831258   -0.08803723   -0.07143239      0.00000000    0.00000000    0.00000000
    8   -8.45834145   -9.16684725   -6.95880945      1.93561757   -1.58840752    4.36089273      0.00000000    0.00000000    0.00000000
    1   -9.46408368    9.43892145   -6.94502278     -0.59456077   -1.08511383    1.60647873      0.00000000    0.00000000    0.00000000
    1   -7.48489237    9.51624227   -6.96811747      0.72191105    0.07198660   -0.13962271      0.00000000    0.00000000    0.00000000
    8   -1.28870013    4.93459754   -5.93554833    -58.95927255   27.32298255 -125.32626891      0.00000000    0.00000000    0.00000000
    1   -0.82761824    4.18424952   -6.22484964     -0.13998980   -0.00668384    0.26578596      0.00000000    0.00000000    0.00000000
    1   -2.09260851    5.30918519   -5.83111798      0.04477045   -0.23508219    0.21469893      0.00000000    0.00000000    0.00000000
    8    0.05883835   -2.45931680    2.87548832      0.01068709    0.08399038   -0.04273211      0.00000000    0.00000000    0.00000000
    1   -0.10127222   -2.56960620    2.00614654      0.00449758   -0.04796044    0.03961412      0.00000000    0.00000000    0.00000000
    1    0.78047478   -2.93506640    3.50142452     -0.01283715   -0.05725589   -0.00174092      0.00000000    0.00000000    0.00000000
    8   -6.89370060   -3.97013741    5.01439691     -6.50192585  -19.39338969   26.44047759      0.00000000    0.00000000    0.00000000
    1   -6.07349210   -3.50142455    5.22801378     -0.52041426    0.50403098    0.13182987      0.00000000    0.00000000    0.00000000
    1   -7.84519860   -3.42873221    4.86326035     -0.55609792    0.84819468    0.24070614      0.00000000    0.00000000    0.00000000
    8   -3.42413974    1.48228154    8.43032609      0.82801070   -1.15641454   -1.44037135      0.00000000    0.00000000    0.00000000
    1   -3.49769238    2.48868523    8.96483948     -0.30892258    0.15181755    0.83807678      0.00000000    0.00000000    0.00000000
    1   -3.96920548    0.77927350    8.79906959     -0.12042235    0.20004694    0.09749891      0.00000000    0.00000000    0.00000000
    8    6.71674582   -4.83556609   -5.93877313     -0.28927735    0.22810882   -1.71264981      0.00000000    0.00000000    0.00000000
    1    7.64823309   -4.68931668   -6.21317624     -0.10910400    0.31155908   -0.41611403      0.00000000    0.00000000    0.00000000
    1    5.92352920   -5.13303731   -6.27962102      0.09312987    0.09569757   -0.17456904      0.00000000    0.00000000    0.00000000
    8   -9.13240894    2.90034182   -3.49133582  -6897.62502662 1470.04487742  874.84971272      0.00000000    0.00000000    0.00000000
    1    9.24481990    3.37260267   -3.86947733      0.06244340   -0.37715832   -0.32345405      0.00000000    0.00000000    0.00000000
    1   -7.98499674    2.84610236   -3.54597554     31.73509949  -48.25462130  -24.57205184      0.00000000    0.00000000    0.00000000
    8   -5.05920457    2.91802455    5.57633361      0.27782391    0.55459657    0.89781342      0.00000000    0.00000000    0.00000000
    1   -4.38747738    3.09514244    4.80680192      0.27007636   -0.24874089    0.09886628      0.00000000    0.00000000    0.00000000
    1   -5.76405804    3.23701450    6.03391207      0.11672931   -0.10530368    0.08392697      0.00000000    0.00000000    0.00000000
    8   -3.81431602    9.11646374   -8.37666415  -2212.12772280 1405.31595111 1418.80711167      0.00000000    0.00000000    0.00000000
    1   -3.42387969   -9.07503251   -8.23711087      0.22352384   -0.43215405    0.20901965      0.00000000    0.00000000    0.00000000
    1   -3.44653710    8.43599232   -9.09782992      5.25092073    1.63982279    1.56243294      0.00000000    0.00000000    0.00000000
    8   -8.72458199    9.50594917    7.35591788     -0.39388856    0.07724678    0.15882736      0.00000000    0.00000000    0.00000000
    1   -8.10709102   -8.77248496    7.63450256      0.17611321   -0.05797238   -0.16020171      0.00000000    0.00000000    0.00000000
    1    9.43520093    9.21502907    6.84303439     -0.03443961   -0.04511727   -0.13572691      0.00000000    0.00000000    0.00000000
    8    8.11558757   -1.67404483   -6.70314451      0.21525117   -0.12835328   -0.10733941      0.00000000    0.00000000    0.00000000