 BEGIN_INFO
   #
   # This is a XCRYSDEN-Structure-File
   # aimed for Visualization of Fermi Surface
   #
   # Case: Tight-binding calculation
   #
   # Launch as: xcrysden --xsf HICOLM.XSF
   #
 END_INFO
 # estrutura final
CRYSTAL
PRIMVEC
      19.00000000       0.00000000       0.00000000
       0.00000000      19.00000000       0.00000000
       0.00000000       0.00000000      19.00000000
PRIMCOORD
  300    1
    8   -4.09454693    3.02499214   -8.54107334      0.34926377    0.87432753   -0.28529390      0.00000000    0.00000000    0.00000000
    1   -4.66742893    3.83640114   -8.65678834     -0.01978121    0.04114346    0.12360601      0.00000000    0.00000000    0.00000000
    1   -4.08806393    2.22952414   -7.93514034     -0.17426782   -0.35906551    0.22277292      0.00000000    0.00000000    0.00000000
    8   -4.44875474   -8.16177543    6.38835477     -1.03361231    0.61985325   -0.52362637      0.00000000    0.00000000    0.00000000
    1   -4.07075074   -9.03955243    6.09409477      0.46535363   -0.52756000   -0.33743217      0.00000000    0.00000000    0.00000000
    1   -4.08237174   -7.25619943    6.60204177      0.28353088    0.25214070   -0.04601988      0.00000000    0.00000000    0.00000000
    8   -7.13575484   -8.57379665    1.69709097     -0.17655765   -0.93480603   -0.75520288      0.00000000    0.00000000    0.00000000
    1   -7.40710784   -8.18244065    0.81778697     -0.02873343    0.13931278    0.14310993      0.00000000    0.00000000    0.00000000
    1   -6.33157384   -9.04746965    2.05610997     -0.00838385    0.22995884    0.19271897      0.00000000    0.00000000    0.00000000
    8    6.22939575   -5.55276971   -3.45021976     -0.14832499   -0.39789005    0.62168612      0.00000000    0.00000000    0.00000000
    1    7.01627475   -6.11979271   -3.20675876      0.09276284    0.22222000    0.04032625      0.00000000    0.00000000    0.00000000
    1    5.36685375   -5.69029471   -3.93712176      0.41189117    0.03925427    0.12072381      0.00000000    0.00000000    0.00000000
    8    7.00935631    1.47105324    5.51145019      0.05789874   -0.10481164    0.00472657      0.00000000    0.00000000    0.00000000
    1    7.67990031    1.99290124    6.03871819     -0.02613118    0.05176051   -0.02096705      0.00000000    0.00000000    0.00000000
    1    6.44537631    1.63511724    4.70214419     -0.02766733    0.06083436    0.00213703      0.00000000    0.00000000    0.00000000
    8   -9.33776573    5.67582968    2.40792333     -0.32265818   -0.56505563   -0.02580347      0.00000000    0.00000000    0.00000000
    1   -9.61998573    5.08267568    1.65394333     -0.00186406   -0.50319182    0.11877836      0.00000000    0.00000000    0.00000000
    1   -9.41991273    6.64783668    2.62797033     -0.07558254   -0.03413357   -0.22228040      0.00000000    0.00000000    0.00000000
    8   -5.96052610    7.93460330   -2.11007051      0.47753294   -0.40094222    0.39395633      0.00000000    0.00000000    0.00000000
    1   -6.42278910    7.04845930   -2.07798951      0.07846218    0.21992328   -0.22466158      0.00000000    0.00000000    0.00000000
    1   -6.22776910    8.89019830   -1.98603451     -0.17905079    0.16981265   -0.28159989      0.00000000    0.00000000    0.00000000
    8    3.05128475    9.44314181   -5.17957335     -0.01701796   -0.16185678    0.46817445      0.00000000    0.00000000    0.00000000
    1    2.53380875   -8.70355019   -5.24320935      0.14838459   -0.14846447    0.03433850      0.00000000    0.00000000    0.00000000
    1    2.98586575    8.60038381   -4.64530335      0.19072195    0.18351616    0.09722848      0.00000000    0.00000000    0.00000000
    8   -8.93606101   -4.86904818   -6.55443073      0.12172554   -0.78661959    0.37123155      0.00000000    0.00000000    0.00000000
    1    9.44710899   -4.14573518   -6.24409873      0.07014243    0.34209026    0.04029791      0.00000000    0.00000000    0.00000000
    1   -9.01464501   -5.68439018   -7.12802273      0.30546175   -0.21575384    0.13150238      0.00000000    0.00000000    0.00000000
    8    5.99198111   -3.83192542    4.25690340      0.12877477    0.06163170   -0.14928649      0.00000000    0.00000000    0.00000000
    1    5.05552911   -3.48130942    4.26658640     -0.02380742   -0.05246891    0.04770344      0.00000000    0.00000000    0.00000000
    1    6.89603111   -3.46284142    4.04140840     -0.09293340   -0.06612784    0.07080246      0.00000000    0.00000000    0.00000000
    8    4.12892481   -8.60294822   -8.49366289     -0.74207927    0.14934722   -1.10589476      0.00000000    0.00000000    0.00000000
    1    3.41077281   -9.29870322   -8.48148089      0.25509093   -0.00415782    0.22777765      0.00000000    0.00000000    0.00000000
    1    4.80523981   -8.25584822   -7.84398089      0.52046343   -0.26505330    0.98817153      0.00000000    0.00000000    0.00000000
    8   -9.17113023    2.22263583    2.13025163     -0.20464895   -0.11719698   -0.05163341      0.00000000    0.00000000    0.00000000
    1    9.45391077    3.14965983    2.12950563      0.06943151    0.60519560    0.14392072      0.00000000    0.00000000    0.00000000
    1    9.45458677    1.29534983    2.13448563      0.07585297   -0.07440954    0.15557926      0.00000000    0.00000000    0.00000000
    8    4.35884577   -7.29399707   -2.23854903     -0.45125804    0.26292329    0.26368465      0.00000000    0.00000000    0.00000000
    1    5.30052777   -7.57123207   -2.42918603     -0.00132454   -0.11445968   -0.05400606      0.00000000    0.00000000    0.00000000
    1    3.58681477   -6.95305007   -2.77491703      0.03077579   -0.02256804    0.14211059      0.00000000    0.00000000    0.00000000
    8    0.94930378    5.27863736    6.72289163     -0.04573703    0.04602688    0.00273209      0.00000000    0.00000000    0.00000000
    1    0.07439578    4.79733736    6.66948263      0.03546651   -0.05583934   -0.02193344      0.00000000    0.00000000    0.00000000
    1    1.85793878    5.08057736    7.09048063     -0.00806878    0.00311468    0.00561491      0.00000000    0.00000000    0.00000000
    8    5.69040572    9.45216486    3.51287152      0.11816207   -0.24028905   -0.01364879      0.00000000    0.00000000    0.00000000
    1    4.71883972   -9.47327214    3.73751752     -0.09692479    0.16370519   -0.00745384      0.00000000    0.00000000    0.00000000
    1    6.42137572   -8.91332014    3.26179152     -0.07125562    0.08351726   -0.02407026      0.00000000    0.00000000    0.00000000
    8    1.08719536    9.43613892    0.89922518      0.00651632   -0.17128956   -0.31975609      0.00000000    0.00000000    0.00000000
    1    0.99279736   -8.56840108    0.88844618     -0.02480485    0.07823807    0.02744716      0.00000000    0.00000000    0.00000000
    1    0.52654536    8.65736792    0.61788218     -0.01488484    0.05952446    0.04631252      0.00000000    0.00000000    0.00000000
    8   -6.60956960    1.18413457   -2.58953752     -0.08604024    0.13049955    0.07328005      0.00000000    0.00000000    0.00000000
    1   -6.92765160    1.91075657   -1.98059452      0.03144036   -0.09287742    0.02920184      0.00000000    0.00000000    0.00000000
    1   -5.73878560    0.92616257   -3.00805052      0.02984558   -0.10197564   -0.07346429      0.00000000    0.00000000    0.00000000
    8   -1.59537883   -5.45327184   -6.40657209     -0.62634071   -0.33595753   -0.22679745      0.00000000    0.00000000    0.00000000
    1   -1.06158283   -6.29652684   -6.46942809      0.38542548    0.08181145   -0.19518868      0.00000000    0.00000000    0.00000000
    1   -2.16530483   -4.91480384   -7.02721909      0.73239574    0.46733779   -0.23801151      0.00000000    0.00000000    0.00000000
    8    6.47261550   -4.56534840    8.01429301      0.19933940   -0.01742986    0.47307789      0.00000000    0.00000000    0.00000000
    1    6.78317550   -3.83364740    8.62103301     -0.30605361    0.22208951   -0.44623470      0.00000000    0.00000000    0.00000000
    1    6.48418550   -5.56516240    8.02862101     -0.03103921   -0.06748541   -0.16122594      0.00000000    0.00000000    0.00000000
    8   -8.34316244   -9.09399493   -3.83185313     -0.07583704   -0.39428465    0.18314509      0.00000000    0.00000000    0.00000000
    1   -7.76988544   -8.96416493   -4.64084313     -0.08849813    0.39765404    0.06899334      0.00000000    0.00000000    0.00000000
    1   -9.27248544    9.58291007   -3.65314713      0.47372164   -0.47957639   -0.21968079      0.00000000    0.00000000    0.00000000
    8   -6.05069066   -2.79703768   -7.76622294     -0.49606048    0.48053662   -0.04062849      0.00000000    0.00000000    0.00000000
    1   -6.58134366   -3.64099868   -7.68809394     -0.61510135    0.75243385    0.75309508      0.00000000    0.00000000    0.00000000
    1   -5.08267866   -2.56137868   -7.85214994      0.59337595    0.15530945   -0.00840794      0.00000000    0.00000000    0.00000000
    8   -0.98522773   -4.11941703  -11.75806348      0.05657660    0.30138830    0.46683331      0.00000000    0.00000000    0.00000000
    1   -1.07397573   -5.11449203  -11.71430748     -0.64015545   -0.12537045   -0.20658000      0.00000000    0.00000000    0.00000000
    1   -1.61302073   -3.34301003  -11.81315448     -0.02328608    0.14110170   -0.09736760      0.00000000    0.00000000    0.00000000
    8   -7.60399226    7.71901503    2.93509759      0.28018912    0.22220035    0.10905894      0.00000000    0.00000000    0.00000000
    1   -7.62805826    8.15608203    2.03600959     -0.06471506    0.23260698   -0.02792800      0.00000000    0.00000000    0.00000000
    1   -8.28065626    7.42124303    3.60846559      0.20217753   -0.00777475    0.19178768      0.00000000    0.00000000    0.00000000
    8   -9.16849511    1.81625581   -7.23049643     -0.16325378   -0.08405319   -0.15105320      0.00000000    0.00000000    0.00000000
    1    9.42416789    0.91952081   -7.05754943      0.16215227   -0.05609914   -0.01607657      0.00000000    0.00000000    0.00000000
    1   -9.50109611    2.75714681   -7.29426443      0.01810894    0.08842862   -0.08501906      0.00000000    0.00000000    0.00000000
    8    7.22319672    0.66235869    0.13119695     -0.02052551    0.06556056    0.26889466      0.00000000    0.00000000    0.00000000
    1    6.31563772    0.79512869   -0.26714305      0.06760168   -0.03201046   -0.07962104      0.00000000    0.00000000    0.00000000
    1    7.88830672    1.23371769    0.61197295     -0.02002927    0.03467756   -0.18551145      0.00000000    0.00000000    0.00000000
    8    1.71485100   -1.51825603   -7.50848316     -0.02188907    0.09211634    0.03904923      0.00000000    0.00000000    0.00000000
    1    1.00749700   -2.15048103   -7.82456816      0.02491046   -0.04297420   -0.01038952      0.00000000    0.00000000    0.00000000
    1    2.68472600   -1.58305703   -7.27372816     -0.00121993   -0.07046602   -0.01157313      0.00000000    0.00000000    0.00000000
    8    5.74680541   -8.40118490   -6.23300314      0.39562175    0.59824788   -0.28394552      0.00000000    0.00000000    0.00000000
    1    6.37190241   -8.39361290   -5.45251414     -0.61932253   -0.49995877    0.05871197      0.00000000    0.00000000    0.00000000
    1    5.43843441   -7.73706390   12.08595486     -0.04264145   -0.17969800    0.04738127      0.00000000    0.00000000    0.00000000
    8    2.69031772   -5.22012716   -4.38104483      0.17811769   -0.27585129   -0.05015223      0.00000000    0.00000000    0.00000000
    1    2.03023172   -5.97026216   -4.42041283     -0.14262620    0.11128483    0.01676300      0.00000000    0.00000000    0.00000000
    1    3.68314972   -5.13953316   -4.29296883     -0.14773509    0.27578327    0.06162671      0.00000000    0.00000000    0.00000000
    8   -6.25855879    2.61909260    3.23523149      0.06681114   -0.00727650   -0.54213361      0.00000000    0.00000000    0.00000000
    1   -5.72540379    3.41304860    3.52736949     -0.21756347   -0.09409506    0.04094170      0.00000000    0.00000000    0.00000000
    1   -7.07663579    2.14352560    3.55857949     -0.14189011    0.08131883   -0.12391377      0.00000000    0.00000000    0.00000000
    8   -4.51931978   -6.67930186   -5.85139197     -0.23506199   -0.64474019    0.03436079      0.00000000    0.00000000    0.00000000
    1   -5.48057978   -6.40372586   -5.84901597     -0.08929781    0.11790742    0.02548756      0.00000000    0.00000000    0.00000000
    1   -3.63644578   -6.20973886   -5.85455497     -0.20086855   -0.69519537    0.99410033      0.00000000    0.00000000    0.00000000
    8   -7.14465854    5.77733599   -6.87643484     -0.32487773   -0.25239206   -0.67311875      0.00000000    0.00000000    0.00000000
    1   -6.28276354    5.35430099   -6.59689184      0.69161043    0.92965330   -0.53894637      0.00000000    0.00000000    0.00000000
    1   -8.07728754    5.46182899   -7.05143784     -0.17636181   -0.00654131   -0.00362465      0.00000000    0.00000000    0.00000000
    8   -1.96411150   -1.56550951   -3.54906162      0.22050533    0.12350602   -0.07135937      0.00000000    0.00000000    0.00000000
    1   -2.12283450   -0.58255751   -3.45643462      0.08884260   -0.03489956    0.39151828      0.00000000    0.00000000    0.00000000
    1   -1.16616250   -2.16820151   -3.55131362      0.03927374   -0.11739595    0.04154047      0.00000000    0.00000000    0.00000000
    8   -3.34370216   -6.86947931   -8.12437554      1.67985630    0.17501287    0.06133831      0.00000000    0.00000000    0.00000000
    1   -4.18352816   -7.31853831   -8.42934254     -0.23152757    0.52078913   -0.15127858      0.00000000    0.00000000    0.00000000
    1   -3.11009816   -6.14506131   -7.47582754      0.10441176   -0.64850007   -0.29998041      0.00000000    0.00000000    0.00000000
    8    4.70493985   -9.81614127   -3.21731958     -1.12330947   -0.52980860   -0.85910521      0.00000000    0.00000000    0.00000000
    1    5.13613085    8.37700973   -3.62109558      0.01392726    0.12621021   -0.02856710      0.00000000    0.00000000    0.00000000
    1    4.15085085   -9.62640427   -2.40679458      0.37611436    0.22570316    0.38108483      0.00000000    0.00000000    0.00000000
    8   -5.06208559   -5.97906936   -3.36093177     -0.40388589    0.46105610    1.09350859      0.00000000    0.00000000    0.00000000
    1   -4.09770959   -5.80557436   -3.16131777      0.46860212   -0.02672326   -0.20078980      0.00000000    0.00000000    0.00000000
    1   -5.74910959   -6.64375536   -3.06740977      0.25308897   -0.69095275    0.54510156      0.00000000    0.00000000    0.00000000
    8   -6.44233541   -3.82418468    2.70193059      0.96740392    0.40867105   -0.06507486      0.00000000    0.00000000    0.00000000
    1   -6.67787041   -4.03490068    3.65066059     -0.29404475   -0.39201948    0.65696809      0.00000000    0.00000000    0.00000000
    1   -6.90447341   -3.87913468    1.81684559     -0.11742875   -0.12786718   -0.42070644      0.00000000    0.00000000    0.00000000
    8    7.46919779   -3.46726620   -1.20644197      0.24727603    0.00623813    0.31396585      0.00000000    0.00000000    0.00000000
    1    6.61485579   -3.98149020   -1.13134097     -0.15451874   -0.10472876   -0.23808522      0.00000000    0.00000000    0.00000000
    1    8.44284279   -3.69186320   -1.24567997     -0.25788221    0.04317720    0.04037475      0.00000000    0.00000000    0.00000000
    8   -2.42902701   -7.60747743   -4.52459944      0.76280660    0.62677991   -0.33353847      0.00000000    0.00000000    0.00000000
    1   -2.00752101   -7.24784043   -5.35704344     -0.19492711   -0.20115450    0.40174490      0.00000000    0.00000000    0.00000000
    1   -2.41248901   -8.47458043   -4.02677844      0.18384871   -0.40097784    0.48547771      0.00000000    0.00000000    0.00000000
    8   -3.59652828   -8.64860297   -1.66628031     -0.45553262   -0.39763266   -0.51868911      0.00000000    0.00000000    0.00000000
    1   -3.42842928   -7.77198297   -1.21545231      0.11603275    0.10648135    0.27176786      0.00000000    0.00000000    0.00000000
    1   -3.45075628   -9.61222897   -1.44235631     -0.24831695    0.14686013    0.12742556      0.00000000    0.00000000    0.00000000
    8   -8.83916420    7.77042957   -2.38099105     -0.58939672   -0.83234098    0.56700958      0.00000000    0.00000000    0.00000000
    1   -8.31617620    7.19253757   -1.75449905     -0.13161898    0.12022935   -0.01476750      0.00000000    0.00000000    0.00000000
    1   -9.62179720    7.64569457   -2.99082105      0.06082753   -0.08349312   -0.00482633      0.00000000    0.00000000    0.00000000
    8   -0.00499787    2.58189624    2.85419066     -0.00070485    0.02111145    0.01240907      0.00000000    0.00000000    0.00000000
    1    0.97156513    2.38094924    2.77729266     -0.01469719    0.00904179    0.01230639      0.00000000    0.00000000    0.00000000
    1   -0.73577687    2.85010324    2.22650266      0.01619963   -0.01938731   -0.01658396      0.00000000    0.00000000    0.00000000
    8    1.07333595    1.14726280   -2.19127535     -0.04158362    0.11245520   -0.07929829      0.00000000    0.00000000    0.00000000
    1    1.30108095    0.20525480   -1.94485935      0.01762138   -0.02992569    0.00519685      0.00000000    0.00000000    0.00000000
    1    1.45196195    1.84256580   -2.80214635      0.05353220   -0.09575414    0.05260248      0.00000000    0.00000000    0.00000000
    8    4.83131355    3.69992117   -3.70290249      0.19407835    0.10064783   -0.08832609      0.00000000    0.00000000    0.00000000
    1    4.72371055    2.72048817   -3.87348449     -0.02545937   -0.10683725    0.04761111      0.00000000    0.00000000    0.00000000
    1    4.23873755    4.50481617   -3.73396449     -0.07771516    0.01501673    0.00020861      0.00000000    0.00000000    0.00000000
    8   -7.32499237   -6.76451729   -4.16368982     -0.08429496    0.03959663   -0.97177012      0.00000000    0.00000000    0.00000000
    1   -8.19720037   -6.53081429   -3.73403682     -0.26495875    0.30255930    0.34971159      0.00000000    0.00000000    0.00000000
    1   -6.40130837   -6.38147529   -4.17102582      0.54955168    0.45291929   -0.25871079      0.00000000    0.00000000    0.00000000
    8   -7.34428278   -9.03690017   -9.13445730     -0.01029332   -0.03144771   -0.13471025      0.00000000    0.00000000    0.00000000
    1   -6.98962678   -8.19327717    9.46244770      0.23559961    0.15331112   -0.31609918      0.00000000    0.00000000    0.00000000
    1   -8.18239578   -9.31215317   -8.66353430     -0.23842406    0.14177467    0.16336580      0.00000000    0.00000000    0.00000000
    8   -7.83880262    2.77609355    9.08731430      0.04246411    0.51015534   -0.16933255      0.00000000    0.00000000    0.00000000
    1   -8.17753562    1.84110955    9.19235330     -0.03265803   -0.12180161    0.12642708      0.00000000    0.00000000    0.00000000
    1   -7.73904362    3.42445755    8.33257030     -0.03817439   -0.08945916   -0.04693284      0.00000000    0.00000000    0.00000000
    8   -7.32729294   -6.42659864    3.37743419     -0.02404569    0.02554849   -0.56659693      0.00000000    0.00000000    0.00000000
    1   -7.28943594   -6.90216964    4.25627719     -0.05143862    0.21156790    0.46284565      0.00000000    0.00000000    0.00000000
    1   -7.98567294   -5.84150564    2.90396919      0.16125113    0.04881275    0.13348805      0.00000000    0.00000000    0.00000000
    8   -3.48946870   -4.12473344   -4.83957375     -0.03506099    0.25023519   -0.50696935      0.00000000    0.00000000    0.00000000
    1   -3.43796570   -3.13545444   -4.70303975      0.16586971    0.13817647    0.41747815      0.00000000    0.00000000    0.00000000
    1   -3.43674770   -4.74673344   -5.62079375      0.05937487    0.39014984    0.69711240      0.00000000    0.00000000    0.00000000
    8   -3.13430757   -6.54711009    8.28295750      0.56669671    0.06611450   -1.00490588      0.00000000    0.00000000    0.00000000
    1   -4.13339957   -6.58144409    8.25839750     -0.34377399    0.01177061    0.26595288      0.00000000    0.00000000    0.00000000
    1   -2.38638757   -7.06091409    7.86273450     -0.05235893    0.11865551   -0.10828464      0.00000000    0.00000000    0.00000000
    8    5.64174927    6.13577228    4.05002648      0.05570463   -0.29426038    0.02805694      0.00000000    0.00000000    0.00000000
    1    5.21203027    6.80725328    3.44635348      0.04734509    0.21654287   -0.00252444      0.00000000    0.00000000    0.00000000
    1    5.64556127    5.95045328    5.03268148     -0.01849804    0.10734951   -0.00566504      0.00000000    0.00000000    0.00000000
    8   -5.93663671    1.04402164   -8.63571164     -0.08746252   -0.04888258    0.17715498      0.00000000    0.00000000    0.00000000
    1   -5.90206571    2.01577564   -8.86908964     -0.17500668    0.23879583   -0.03128453      0.00000000    0.00000000    0.00000000
    1   -6.65354371    0.38130964   -8.41931964     -0.12912784    0.08748463    0.23648643      0.00000000    0.00000000    0.00000000
    8   -4.98811838    9.68022146    8.59246771      0.55143820   -0.22668776    0.04303303      0.00000000    0.00000000    0.00000000
    1   -4.51462338   -8.78618554   -9.70678529     -0.05501416   -0.15902542   -0.38529400      0.00000000    0.00000000    0.00000000
    1   -5.61217338   -9.12147154    7.83669271      0.11312091    0.15517808   -0.37029200      0.00000000    0.00000000    0.00000000
    8   -6.08114483   -1.77633730    4.55052416     -0.16941796    0.61239476    0.32397377      0.00000000    0.00000000    0.00000000
    1   -6.26087983   -0.80216730    4.41394516      0.22324325    0.12570381   -0.00353098      0.00000000    0.00000000    0.00000000
    1   -5.26992283   -2.34742230    4.67601916      0.12976053    0.16764326   -0.24782759      0.00000000    0.00000000    0.00000000
    8   -2.07908994   -1.56898796    7.76587832     -0.08088037   -0.25860157    0.23476070      0.00000000    0.00000000    0.00000000
    1   -1.96082294   -0.73495496    8.30473632      0.04637451    0.26551407   -0.09411571      0.00000000    0.00000000    0.00000000
    1   -1.47642494   -2.20849196    7.28859832     -0.00363141    0.05221872   -0.09111749      0.00000000    0.00000000    0.00000000
    8    6.30326094    6.89676294   -8.85197308     -0.48286826    0.11357560   -0.00884850      0.00000000    0.00000000    0.00000000
    1    7.15665994    6.49123194   -8.52452608      0.20777830   -0.07441500   -0.19533506      0.00000000    0.00000000    0.00000000
    1    5.33744794    6.84263294   -8.59851408      0.07713626    0.03281867    0.06266322      0.00000000    0.00000000    0.00000000
    8    8.06771430   -8.61841672   -4.28994312     -0.78773329   -0.14067267   -0.22113758      0.00000000    0.00000000    0.00000000
    1    8.70892330   -8.45847472   -3.53945312      0.07536061    0.57213672    0.16497211      0.00000000    0.00000000    0.00000000
    1    7.56410430   -8.04880572   -4.93947112      0.58264446    0.24916846    0.17455364      0.00000000    0.00000000    0.00000000
    8    8.04524597   -4.47576255   -8.27520801      0.06147220    0.25021203   -0.62841577      0.00000000    0.00000000    0.00000000
    1    7.59054897   -4.28096455   -9.14427201      0.07447142   -0.26414775    0.18933862      0.00000000    0.00000000    0.00000000
    1    8.47999897   -5.27137555   -7.85335901     -0.13545651   -0.11907548   -0.25814515      0.00000000    0.00000000    0.00000000
    8   -3.20658382   -6.38195497    4.95376768      0.46275916    0.75849777   -0.11924379      0.00000000    0.00000000    0.00000000
    1   -3.52483482   -7.32970497    4.93247568     -0.22275369   -0.23677298   -0.04866635      0.00000000    0.00000000    0.00000000
    1   -3.63611482   -5.47895097    4.96112568     -0.02150110   -0.06411482   -0.17520513      0.00000000    0.00000000    0.00000000
    8   -5.52832931    7.64588822   -8.67136688      0.10158197   -1.33971822    0.40241505      0.00000000    0.00000000    0.00000000
    1   -6.15398831    6.92390322   -8.37597388     -0.35187527   -0.08220845   -0.02482523      0.00000000    0.00000000    0.00000000
    1   -5.37929831  -10.39259778   -8.44061588     -0.41796714   -0.26016305    0.66350656      0.00000000    0.00000000    0.00000000
    8   -2.94462168   -5.48903382    0.94244320      0.59861403    0.96844192   -0.15642896      0.00000000    0.00000000    0.00000000
    1   -3.76206468   -6.06318782    0.89662420     -0.24310337   -0.66212213    0.10624649      0.00000000    0.00000000    0.00000000
    1   -2.75293168   -4.52301782    1.11575220     -0.01824128   -0.17866938    0.14418217      0.00000000    0.00000000    0.00000000
    8   -8.89190056   -2.62835471    3.25861625     -0.81944208   -0.03876248    0.16928069      0.00000000    0.00000000    0.00000000
    1   -8.00699056   -2.17990371    3.38428425      0.52112075   -0.01826635    0.02760682      0.00000000    0.00000000    0.00000000
    1   -9.85094656   -2.37563671    3.38640725      0.13320366    0.26298996   -0.10560736      0.00000000    0.00000000    0.00000000
    8   -0.15868924   -6.54268438    6.52697564     -0.15342208   -0.54980645    0.36630652      0.00000000    0.00000000    0.00000000
    1   -0.29387624   -7.44572438    6.93466464      0.19366818   -0.07047840   -0.20217195      0.00000000    0.00000000    0.00000000
    1    0.02993876   -5.62117638    6.86639964      0.63189558    0.29769866   -0.31453655      0.00000000    0.00000000    0.00000000
    8   -8.51862137   -9.21541232   -6.75866896     -0.50212421   -0.03330738    0.23132332      0.00000000    0.00000000    0.00000000
    1   -9.44697237    9.41304168   -6.74940196      0.11586202   -0.37945443    0.76818441      0.00000000    0.00000000    0.00000000
    1   -7.59459037    9.41403968   -6.66470796      0.29485094   -0.31386366   -0.50796752      0.00000000    0.00000000    0.00000000
    8   -1.45260249    5.06090294   -6.37796112     -0.05113748    0.30684504   -0.61857904      0.00000000    0.00000000    0.00000000
    1   -0.99149449    4.31890694   -6.86456912     -0.08362636   -0.06481417    0.08704763      0.00000000    0.00000000    0.00000000
    1   -2.33322049    5.52939194   -6.44865012     -0.01369174   -0.05458916    0.05458490      0.00000000    0.00000000    0.00000000
    8    0.04150846   -2.53954008    2.90399015     -0.01772821    0.11859370   -0.09662497      0.00000000    0.00000000    0.00000000
    1   -0.11368854   -2.46578808    1.91888015      0.02241575   -0.04468178    0.05365841      0.00000000    0.00000000    0.00000000
    1    0.80298446   -2.80765708    3.49410315     -0.00825476   -0.07778309    0.03731042      0.00000000    0.00000000    0.00000000
    8   -6.97969032   -4.24778892    5.29521726      0.08225966   -0.34542836    0.50307274      0.00000000    0.00000000    0.00000000
    1   -6.08524132   -3.89952692    5.57564526     -0.15540510    0.10931820    0.09190497      0.00000000    0.00000000    0.00000000
    1   -7.89906332   -3.86836392    5.19150026     -0.13126403    0.11502038   -0.07533413      0.00000000    0.00000000    0.00000000
    8   -3.36672005    1.38309226    8.33915440      0.34189789   -0.62814517   -0.42699092      0.00000000    0.00000000    0.00000000
    1   -3.35832105    2.32039326    8.68752640     -0.19106600    0.17390888    0.38979099      0.00000000    0.00000000    0.00000000
    1   -3.82391905    0.52840926    8.58503040      0.20237915    0.26853066   -0.03011731      0.00000000    0.00000000    0.00000000
    8    6.66881622   -4.88658304   -5.99551965     -0.28436172   -0.40397060   -0.17760380      0.00000000    0.00000000    0.00000000
    1    7.61617522   -4.80017804   -6.30375965     -0.25743965    0.34829607   -0.20266878      0.00000000    0.00000000    0.00000000
    1    5.81374522   -5.22798504   -6.38573065      0.09726156    0.22959196   -0.06726156      0.00000000    0.00000000    0.00000000
    8  -10.50694578    3.18267825   -3.32013542     -0.14985908   -0.03304922   -0.00094528      0.00000000    0.00000000    0.00000000
    1    7.73992522    3.76647625   -3.62335742     -0.06187938   -0.10770609   -0.05486990      0.00000000    0.00000000    0.00000000
    1   -9.50871678    3.24156825   -3.31399042      0.07276225   -0.12003082   -0.09822398      0.00000000    0.00000000    0.00000000
    8   -5.03749649    2.96200710    5.64525842      0.03888072    0.35378114    0.36588493      0.00000000    0.00000000    0.00000000
    1   -4.39527949    3.25184110    4.93566642      0.15610594   -0.18462820    0.12335111      0.00000000    0.00000000    0.00000000
    1   -5.77517449    3.39105710    6.16651842      0.09603420   -0.06614014    0.00002495      0.00000000    0.00000000    0.00000000
    8   -3.94042493    9.73808504   -7.59374884     -0.13824831    0.03645495    1.32892700      0.00000000    0.00000000    0.00000000
    1   -3.68648093   -8.31017296   -7.42151084      0.49707867    0.51986267    0.37789659      0.00000000    0.00000000    0.00000000
    1   -3.75145493    9.06054304   -8.30451984     -0.09317571   -0.99550763   -0.64069434      0.00000000    0.00000000    0.00000000
    8   -8.72330304    9.49064321    7.30780486     -0.54936368    0.09286046    0.00480738      0.00000000    0.00000000    0.00000000
    1   -8.26998704   -8.71072879    7.70361386      0.30814666   -0.14500919   -0.15053008      0.00000000    0.00000000    0.00000000
    1    9.37158096    9.28933821    6.93336186      0.04502195   -0.08931692    0.05046311      0.00000000    0.00000000    0.00000000
    8    8.04526385   -1.66424636   -6.65200191     -0.12154750    0.00194571   -0.01736551      0.00000000    0.00000000    0.00000000