 BEGIN_INFO
   #
   # This is a XCRYSDEN-Structure-File
   # aimed for Visualization of Fermi Surface
   #
   # Case: Tight-binding calculation
   #
   # Launch as: xcrysden --xsf HICOLM.XSF
   #
 END_INFO
 # estrutura final
CRYSTAL
PRIMVEC
      19.00000000       0.00000000       0.00000000
       0.00000000      19.00000000       0.00000000
       0.00000000       0.00000000      19.00000000
PRIMCOORD
  300    1
    8   -4.64068913    2.82198279   -9.99237601      5.16751571   -0.22146473   -4.82350731      0.00000000    0.00000000    0.00000000
    1   -5.21357119    3.63339177  -10.10809094     -1.22896351   -3.20878403    3.78954196      0.00000000    0.00000000    0.00000000
    1   -4.63420621    2.02651481   -9.38644296     -3.51155308    5.54757971    1.38955313      0.00000000    0.00000000    0.00000000
    8    6.17909577    2.00236646   -5.04947424     -7.35151277   -0.19112348    0.79032083      0.00000000    0.00000000    0.00000000
    1    6.55709986    1.12458949   -5.34373424      3.81625995    3.62161024    0.67059201      0.00000000    0.00000000    0.00000000
    1    6.54547886    2.90794244   -4.83578725      4.24519819   -3.61186999   -2.07232948      0.00000000    0.00000000    0.00000000
    8   -7.91048220  -10.67988746    2.36485007     -5.44928563    0.86110518    5.20468632      0.00000000    0.00000000    0.00000000
    1   -8.18183512  -10.28853148    1.48554603      4.69203133   -2.01399722   -0.24364457      0.00000000    0.00000000    0.00000000
    1   -7.10630115  -11.15356045    2.72386899      0.44072439    1.37635961   -4.87271245      0.00000000    0.00000000    0.00000000
    8    6.47134214   -6.34234444   -2.78495098      0.77226675    6.81665342    2.31607136      0.00000000    0.00000000    0.00000000
    1    7.25822111   -6.90936751   -2.54149003     -3.57087568   -2.49293891   -2.60914754      0.00000000    0.00000000    0.00000000
    1    5.60880017   -6.47986952   -3.27185300      2.93095681   -4.15487132    0.35447598      0.00000000    0.00000000    0.00000000
    8    6.85916809    1.04445158    5.49071515     -1.16231929   -6.73935198    2.80152982      0.00000000    0.00000000    0.00000000
    1    7.52971208    1.56629965    6.01798310     -1.89303200    2.63422405   -4.11235865      0.00000000    0.00000000    0.00000000
    1    6.29518812    1.20851566    4.68140914      3.04521317    4.16491107    1.31339156      0.00000000    0.00000000    0.00000000
    8   -9.39051274    4.29341919    2.03500042      3.70095333   -3.79717382    5.18071274      0.00000000    0.00000000    0.00000000
    1    9.32726722    3.70026527    1.28102038     -1.27940693    5.24723807   -0.74802857      0.00000000    0.00000000    0.00000000
    1   -9.47265979    5.26542623    2.25504734     -2.29702990   -1.16189147   -4.52029267      0.00000000    0.00000000    0.00000000
    8   -3.65410308    7.30891983   -0.34933879      7.52075207   -0.79340306   -1.48299379      0.00000000    0.00000000    0.00000000
    1   -4.11636616    6.42277587   -0.31725777     -3.50931410    3.91219415    0.86543951      0.00000000    0.00000000    0.00000000
    1   -3.92134617    8.26451482   -0.22530277     -4.19437010   -3.30562352    0.64878530      0.00000000    0.00000000    0.00000000
    8    2.82838352   10.51591568   -6.72389030      5.75713944    0.15456298   -4.93916607      0.00000000    0.00000000    0.00000000
    1    2.31090745   -7.63077635   -6.78752622     -2.11443286   -3.27117088    3.68522405      0.00000000    0.00000000    0.00000000
    1    2.76296444    9.67315772   -6.18962026     -3.76609806    3.12225130    1.11207376      0.00000000    0.00000000    0.00000000
    8   -7.12256949   -4.95965368   -9.03778497      7.03275932    0.84910225    2.49985153      0.00000000    0.00000000    0.00000000
    1   -7.73939957   -4.23634072   -8.72745302     -2.45388011   -3.50474506   -3.24326154      0.00000000    0.00000000    0.00000000
    1   -7.20115358   -5.77499567   -9.61137700     -3.82890068    2.80164993    0.41611877      0.00000000    0.00000000    0.00000000
    8    5.47544609   -2.50615129    3.41966706      0.32125485   -7.25072528    1.90840815      0.00000000    0.00000000    0.00000000
    1    4.53899411   -2.15553521    3.42935004      3.50621963    3.56123075   -1.36755510      0.00000000    0.00000000    0.00000000
    1    6.37949605   -2.13706721    3.20417205     -3.78388009    3.56175054   -0.19986544      0.00000000    0.00000000    0.00000000
    8    4.32562048   -6.87386390   -8.66420341      0.47314672    3.65907015   -6.74257794      0.00000000    0.00000000    0.00000000
    1    3.60746849   -7.56961893   -8.65202132      2.38574041    0.10830820    4.67722285      0.00000000    0.00000000    0.00000000
    1    5.00193545   -6.52676396   -8.01452135     -2.74474902   -3.71367240    1.06634875      0.00000000    0.00000000    0.00000000
    8  -10.97308063    0.35542109    2.12016904      7.01252038   -0.82830286   -0.24613072      0.00000000    0.00000000    0.00000000
    1    7.65196029    1.28244506    2.11942304     -3.44433655   -3.26540067    0.15920815      0.00000000    0.00000000    0.00000000
    1    7.65263629   -0.57186487    2.12440304     -3.01898718    3.86980411    0.21663231      0.00000000    0.00000000    0.00000000
    8    3.79836336   -8.14919458   -2.52565175     -1.55364464   -0.67825595    7.00155626      0.00000000    0.00000000    0.00000000
    1    4.74004535   -8.42642958   -2.71628884     -2.48504371    1.35011393   -4.13947944      0.00000000    0.00000000    0.00000000
    1    3.02633241   -7.80824760   -3.06201983      4.02367807   -0.80888814   -2.76970990      0.00000000    0.00000000    0.00000000
    8    2.78858720    5.52004693    7.43579278     -0.14650361    6.74632055   -2.99141278      0.00000000    0.00000000    0.00000000
    1    1.91367924    5.03874685    7.38238382      3.63149079   -2.79662415    2.36383215      0.00000000    0.00000000    0.00000000
    1    3.69722217    5.32198683    7.80338181     -3.40607767   -3.97669429    0.65678836      0.00000000    0.00000000    0.00000000
    8    6.34554752    8.27908267    4.03848396      2.31479550   -7.06453130    0.40397132      0.00000000    0.00000000    0.00000000
    1    5.37398152  -10.64635423    4.26312995      2.16509095    4.65662449   -1.11111340      0.00000000    0.00000000    0.00000000
    1    7.07651745  -10.08640225    3.78740396     -4.57387929    2.42024211    0.73481515      0.00000000    0.00000000    0.00000000
    8    0.84905430   10.18156641   -0.00388688      6.10409331   -1.98266759    2.58060918      0.00000000    0.00000000    0.00000000
    1    0.75465621   -7.82297359   -0.01466592     -4.13554209   -2.45388925   -1.94915438      0.00000000    0.00000000    0.00000000
    1    0.28840422    9.40279547   -0.28522991     -2.19549204    4.34948038   -0.78986487      0.00000000    0.00000000    0.00000000
    8    4.61027287   -0.96085149   -5.34936128     -5.68448133   -4.79127507   -1.71686996      0.00000000    0.00000000    0.00000000
    1    4.29219096   -0.23422944   -4.74041828      5.09293579    0.88496731   -1.17292983      0.00000000    0.00000000    0.00000000
    1    5.48105692   -1.21882341   -5.76787424     -0.10859149    3.42736812    2.35825258      0.00000000    0.00000000    0.00000000
    8   -1.98952356   -6.01122289   -5.69179711      0.37131138    3.05862715    6.75362273      0.00000000    0.00000000    0.00000000
    1   -1.45572758   -6.85447789   -5.75465322     -2.26544113    1.14969493   -4.43419307      0.00000000    0.00000000    0.00000000
    1   -2.55944954   -5.47275493   -6.31244419      4.04074394   -4.39407109   -2.84650936      0.00000000    0.00000000    0.00000000
    8    7.16141270   -3.99186514    9.62182382     -3.52155257    2.65491530   -6.16001729      0.00000000    0.00000000    0.00000000
    1    7.47197273   -3.26016421   10.22856388      1.10937410   -4.81321039    1.24419669      0.00000000    0.00000000    0.00000000
    1    7.17298274   -4.99167915    9.63615190      2.33272887    1.93776430    4.20492208      0.00000000    0.00000000    0.00000000
    8   -9.78993680   -9.06088181   -2.23340187      2.96308802    2.14583254    6.26945871      0.00000000    0.00000000    0.00000000
    1   -9.21665987   -8.93105184   -3.04239195     -4.51868157   -1.63930520   -1.27629713      0.00000000    0.00000000    0.00000000
    1  -10.71925981   -9.38397683   -2.05469597      2.46530335   -0.72200494   -4.18268494      0.00000000    0.00000000    0.00000000
    8   -6.75968342   -1.82172087   -8.77998664     -3.86641523    6.07665049    0.02858852      0.00000000    0.00000000    0.00000000
    1   -7.29033633   -2.66568194   -8.70185763      5.13500794   -0.44386288   -0.22297206      0.00000000    0.00000000    0.00000000
    1   -5.79167138   -1.58606198   -8.86591364     -0.93515342   -5.87745028    0.38690885      0.00000000    0.00000000    0.00000000
    8    3.84748950    0.90471002   -3.35365885      7.10297338    1.71012540   -0.02150894      0.00000000    0.00000000    0.00000000
    1    3.75874139   -0.09036498   -3.30990285     -4.65233827    2.19944748    0.14006657      0.00000000    0.00000000    0.00000000
    1    3.21969642    1.68111696   -3.40874985     -0.37791177   -4.71930325   -0.46092163      0.00000000    0.00000000    0.00000000
    8   -5.83972728    6.86419487    3.43787496      6.83701485   -1.23814520    2.02929009      0.00000000    0.00000000    0.00000000
    1   -5.86379336    7.30126187    2.53878696     -4.18148087   -1.03134055    1.88997422      0.00000000    0.00000000    0.00000000
    1   -6.51639136    6.56642290    4.11124290     -2.21040035    2.05385447   -4.05529460      0.00000000    0.00000000    0.00000000
    8  -10.38888351    0.87910888   -7.57472361      7.07076194   -0.97896399   -1.14834134      0.00000000    0.00000000    0.00000000
    1    8.20377941   -0.01762608   -7.40177659     -1.80169717    3.02240580   -1.17134417      0.00000000    0.00000000    0.00000000
    1    8.27851540    1.81999986   -7.63849159     -3.35121783   -2.69478705    0.60418446      0.00000000    0.00000000    0.00000000
    8    5.63398896   -0.65131900    1.25382916      1.96691468   -7.29359130   -0.80778967      0.00000000    0.00000000    0.00000000
    1    4.72642996   -0.51854889    0.85548918      1.91499042    4.47245822    2.05900115      0.00000000    0.00000000    0.00000000
    1    6.29909890   -0.07995992    1.73460515     -4.23174245    3.00970601   -1.49252838      0.00000000    0.00000000    0.00000000
    8    0.64546612   -1.35852044   -7.58520584     -2.71903728    7.16858618    1.09575073      0.00000000    0.00000000    0.00000000
    1   -0.06188780   -1.99074552   -7.90129084      6.24716004   -1.94944724    0.73832319      0.00000000    0.00000000    0.00000000
    1    1.61534113   -1.42332153   -7.35045085     -1.93722939   -4.55488991   -1.49645501      0.00000000    0.00000000    0.00000000
    8    9.23070569   -6.05058649   -5.87882687     -3.04427351   -6.66795731   -1.19263713      0.00000000    0.00000000    0.00000000
    1   -9.14419730   -6.04301440   -5.09833788     -0.74849815    4.05702727   -0.92527833      0.00000000    0.00000000    0.00000000
    1    8.92233474   -5.38646541   -6.55986883      3.06931756    2.06496053    3.62080784      0.00000000    0.00000000    0.00000000
    8    2.18543144   -6.69804098   -4.44526633     -3.30404038    6.47051436   -0.43116750      0.00000000    0.00000000    0.00000000
    1    1.52534552   -7.44817604   -4.48463431      4.80681414   -1.64542924    0.49438635      0.00000000    0.00000000    0.00000000
    1    3.17826347   -6.61744706   -4.35719033     -1.53450310   -4.76506982   -0.13834524      0.00000000    0.00000000    0.00000000
    8   -5.55938979    2.74074456    2.55343633      2.86717668   -3.08429181   -6.09004112      0.00000000    0.00000000    0.00000000
    1   -5.02623485    3.53470056    2.84557442     -4.07645094   -0.99131369    3.05447514      0.00000000    0.00000000    0.00000000
    1   -6.37746680    2.26517761    2.87678442      1.23026364    4.11832998    2.99353038      0.00000000    0.00000000    0.00000000
    8   -4.58777949   -6.30875497   -5.87625199      0.78873593   -7.39269927    0.20981489      0.00000000    0.00000000    0.00000000
    1   -5.54903948   -6.03317889   -5.87387599      4.09118524    2.15547819    0.16632611      0.00000000    0.00000000    0.00000000
    1   -3.70490553   -5.83919189   -5.87941499     -4.38654413    1.72851876    1.00562254      0.00000000    0.00000000    0.00000000
    8   -6.42932794    5.71539692   -7.14992416      0.89516362    7.40758804   -1.00004246      0.00000000    0.00000000    0.00000000
    1   -5.56743297    5.29236183   -6.87038115     -3.71642924   -3.37536989   -0.65412572      0.00000000    0.00000000    0.00000000
    1   -7.36195691    5.39988983   -7.32492713      3.05549393   -3.95938151    1.50896260      0.00000000    0.00000000    0.00000000
    8   -2.21316573   -1.62835182   -3.93953858     -6.35419804   -3.65469329   -0.91415657      0.00000000    0.00000000    0.00000000
    1   -2.37188864   -0.64539981   -3.84691157      5.10013870   -1.36495124    0.37022101      0.00000000    0.00000000    0.00000000
    1   -1.41521667   -2.23104375   -3.94179057      1.25694867    4.96843405    0.65405880      0.00000000    0.00000000    0.00000000
    8   -4.07313677   -8.94003254   -8.62346968      5.98720960   -2.91692752   -3.38483624      0.00000000    0.00000000    0.00000000
    1   -4.91296284   -9.38909148   -8.92843662     -0.98850597    3.21463057    3.52073028      0.00000000    0.00000000    0.00000000
    1   -3.83953288   -8.21561453   -7.97492166     -4.99779513   -0.69854745    0.03939882      0.00000000    0.00000000    0.00000000
    8    4.11750517    8.43534939   -4.34595882      0.93541534    6.12619433   -4.10928242      0.00000000    0.00000000    0.00000000
    1    4.54869613    7.62850035   -4.74973474     -2.51805551   -0.99449846    4.40922758      0.00000000    0.00000000    0.00000000
    1    3.56341616    8.62508631   -3.53543378      1.38215237   -4.97549481   -0.23033555      0.00000000    0.00000000    0.00000000
    8   -7.79944129   -3.81826948   -1.86879859     -3.17611402    4.80839151   -4.62253115      0.00000000    0.00000000    0.00000000
    1   -6.83506528   -3.64477456   -1.66918455     -2.83167059   -5.58036380   -0.16422302      0.00000000    0.00000000    0.00000000
    1   -8.48646522   -4.48295555   -1.57527654      4.30235461   -0.87486838    2.64864547      0.00000000    0.00000000    0.00000000
    8   -4.70808091   -3.30418336    1.26433756      6.93873977    2.62146040   -0.80675524      0.00000000    0.00000000    0.00000000
    1   -4.94361599   -3.51489940    2.21306755     -3.70116099   -1.15408369   -2.69329386      0.00000000    0.00000000    0.00000000
    1   -5.17021899   -3.35913340    0.37925260     -3.29847459   -1.48402227    4.18648012      0.00000000    0.00000000    0.00000000
    8    8.47768250   -2.32402408    1.83490102      0.37291472   13.19907623  -32.32340108      0.00000000    0.00000000    0.00000000
    1    7.62334054   -2.83824818    1.91000206      4.84781605   -2.20396786  -12.24899486      0.00000000    0.00000000    0.00000000
    1    9.45132746   -2.54862118    1.79566310     -2.41180447   -4.71034489    0.50310863      0.00000000    0.00000000    0.00000000
    8   -3.46649635   -4.03403106   -6.80974662     -4.46664393    4.93215819    3.25606784      0.00000000    0.00000000    0.00000000
    1   -3.04499030   -3.67439414   -7.64219064      1.75200005   -4.55348143    0.71275929      0.00000000    0.00000000    0.00000000
    1   -3.44995830   -4.90113409   -6.31192568      2.08477492    1.73176102   -4.64174206      0.00000000    0.00000000    0.00000000
    8   -3.76901406   -9.47574151   -2.64611122     -3.02041566    0.60649761   -6.68133826      0.00000000    0.00000000    0.00000000
    1   -3.60091503   -8.59912155   -2.19528314      1.64379368   -3.82545047    3.06898931      0.00000000    0.00000000    0.00000000
    1   -3.62324202    8.56063251   -2.42218713      1.70710497    3.14717235    3.74152152      0.00000000    0.00000000    0.00000000
    8   -9.48850472    6.85365447   -1.52336628      2.55544629    6.72572474   -0.03191005      0.00000000    0.00000000    0.00000000
    1   -8.96551677    6.27576240   -0.89687430     -3.90791619   -2.55173972   -2.42105029      0.00000000    0.00000000    0.00000000
    1    8.72886227    6.72891939   -2.13319626      1.30953825   -4.02889266    2.47580403      0.00000000    0.00000000    0.00000000
    8    0.65204812    2.93054756    2.51503020     -2.23889494   -0.57858010    6.87828401      0.00000000    0.00000000    0.00000000
    1    1.62861112    2.72960058    2.43813210     -2.28092863    1.24555312   -4.52835961      0.00000000    0.00000000    0.00000000
    1   -0.07873081    3.19875456    1.88734212      4.46171284   -0.64206069   -2.35972923      0.00000000    0.00000000    0.00000000
    8    1.23538118    0.64953598   -2.26183942     -5.86006639    2.12678252    3.71650131      0.00000000    0.00000000    0.00000000
    1    1.46312626   -0.29247202   -2.01542348      3.13790068    2.01213362   -3.51072008      0.00000000    0.00000000    0.00000000
    1    1.61400725    1.34483893   -2.87271045      1.28749066   -4.81899674    0.32054860      0.00000000    0.00000000    0.00000000
    8    6.20460941    4.54819375   -3.80972489      7.13174933    1.61987126    2.09839613      0.00000000    0.00000000    0.00000000
    1    6.09700631    3.56876075   -3.98030691     -5.06932018    2.84880827   -0.05990274      0.00000000    0.00000000    0.00000000
    1    5.61203334    5.35308871   -3.84078692     -2.49698907   -4.33512485   -1.29429195      0.00000000    0.00000000    0.00000000
    8   -7.12833873   -5.83917939   -5.94268086     -0.44749548   -5.80923817   -4.40292970      0.00000000    0.00000000    0.00000000
    1   -8.00054670   -5.60547632   -5.51302782      4.40877448    3.66481311    0.92816651      0.00000000    0.00000000    0.00000000
    1   -6.20465477   -5.45613732   -5.95001680     -4.70481659    4.37023928    2.81865388      0.00000000    0.00000000    0.00000000
    8  -12.49704375  -10.32397766   -8.57752303      4.47524294   -5.83324976   -0.62805352      0.00000000    0.00000000    0.00000000
    1  -12.14238783   -9.48035461   -8.98061800     -4.59290503    0.68492766    2.06943067      0.00000000    0.00000000    0.00000000
    1  -13.33515679  -10.59923057   -8.10660004     -0.54430826    4.90859492   -1.76126366      0.00000000    0.00000000    0.00000000
    8   -7.40676309    3.91431095    9.23306126      2.60862940    2.82295071    6.49079653      0.00000000    0.00000000    0.00000000
    1   -7.74549611    2.97932694    9.33810016     -0.52655366    1.66799149   -4.91501069      0.00000000    0.00000000    0.00000000
    1   -7.30700413    4.56267489    8.47831718     -2.11758891   -4.53890999   -1.37952584      0.00000000    0.00000000    0.00000000
    8   -6.80482549   -7.06523353    2.38649380      6.30051195   -1.20213513   -3.95575855      0.00000000    0.00000000    0.00000000
    1   -6.76696858   -7.54080450    3.26533684     -4.57638470    2.70053958   -0.71205368      0.00000000    0.00000000    0.00000000
    1   -7.46320555   -6.48014054    1.91302888     -1.77753616   -1.44517326    4.63013497      0.00000000    0.00000000    0.00000000
    8   -4.35441144   -5.23108060   -3.21749249     -1.21111330   -3.72415210    6.52673036      0.00000000    0.00000000    0.00000000
    1   -4.30290844   -4.24180159   -3.08095858      0.57129532   -1.15625272   -4.94656116      0.00000000    0.00000000    0.00000000
    1   -4.30169044   -5.85308052   -3.99871254      0.57575315    4.76912656   -1.47794908      0.00000000    0.00000000    0.00000000
    8   -1.72013607   -7.29674923    8.67141297      2.84052713    5.42019928    4.78016281      0.00000000    0.00000000    0.00000000
    1   -2.71922807   -7.33108331    8.64685292      2.09567272   -3.67390552   -3.01295326      0.00000000    0.00000000    0.00000000
    1   -0.97221615   -7.81055331    8.25118992     -4.96458909   -1.87335991   -1.59856913      0.00000000    0.00000000    0.00000000
    8    5.73496306    4.17170616    4.09796383      4.17838009   -5.12797884   -3.80786259      0.00000000    0.00000000    0.00000000
    1    5.30524401    4.84318722    3.49429091     -1.18613276    0.84236856    5.06158488      0.00000000    0.00000000    0.00000000
    1    5.73877499    3.98638724    5.08061886     -2.98039362    4.22153598   -1.25982190      0.00000000    0.00000000    0.00000000
    8   -4.80888708    0.19335210   -9.19371212      6.90312248   -3.17342159    0.08080138      0.00000000    0.00000000    0.00000000
    1   -4.77431617    1.16510610   -9.42709012     -5.29907387   -3.62132871    0.43368807      0.00000000    0.00000000    0.00000000
    1   -5.52579415   -0.46935984   -8.97732012     -2.33023164    5.83393419   -0.87956975      0.00000000    0.00000000    0.00000000
    8   -5.29347707   -9.01583547    7.77654040      1.14284096   -7.18222326    0.62265678      0.00000000    0.00000000    0.00000000
    1   -4.81998211   -8.48224239    8.47728738     -2.74010393    3.01804419   -2.90676332      0.00000000    0.00000000    0.00000000
    1   -5.91753207   -8.81752837    7.02076542      1.56655932    4.29538836    2.44285210      0.00000000    0.00000000    0.00000000
    8   -7.66200545   -2.43460106    3.97760138     -6.19865201   -4.10159134   -0.17299378      0.00000000    0.00000000    0.00000000
    1   -7.84174036   -1.46043104    3.84102238      4.94968419   -0.88557007    0.51292309      0.00000000    0.00000000    0.00000000
    1   -6.85078339   -3.00568600    4.10309636     -2.27316572    6.76643832    1.20105647      0.00000000    0.00000000    0.00000000
    8   -1.01099521   -3.24549165   10.34294413     -6.88608260   -2.12439119   -0.21398859      0.00000000    0.00000000    0.00000000
    1   -0.89272811   -2.41145865   10.88180213      2.86558324   -2.45638082   -2.11596792      0.00000000    0.00000000    0.00000000
    1   -0.40833013   -3.88499560    9.86566414      2.51485611    3.74791825    2.14903370      0.00000000    0.00000000    0.00000000
    8   18.83172503   13.97566975  -10.19934400      2.92565338    4.85108421   -7.18197365      0.00000000    0.00000000    0.00000000
    1   19.68512400   13.57013868   -9.87189693     -4.44817789   -2.26999208    4.01344644      0.00000000    0.00000000    0.00000000
    1   17.86591205   13.92153968   -9.94588492      2.75026302   -3.09064990    3.21122386      0.00000000    0.00000000    0.00000000
    8    6.84872285   -9.44836599   -3.52226257     -1.77450094   -7.15160995   -0.91246796      0.00000000    0.00000000    0.00000000
    1    7.48993185   -9.28842389   -2.77177260     -2.04881685    4.61038266   -3.21057890      0.00000000    0.00000000    0.00000000
    1    6.34511289   -8.87875491   -4.17179053      3.16448349    2.64827445    3.04679935      0.00000000    0.00000000    0.00000000
    8    9.88303135   -3.29574904   -7.99087627      0.51573771    6.07795475    4.15017474      0.00000000    0.00000000    0.00000000
    1    9.42833436   -3.10095116   -8.85994030     -1.20153904   -8.76421948   -3.62299014      0.00000000    0.00000000    0.00000000
    1   10.31778433   -4.09136211   -7.56902734     -2.13071320   -1.23585883   -4.29976743      0.00000000    0.00000000    0.00000000
    8   -3.06595261   -5.10384685    4.96764113      7.47790275    0.86455935    0.14461094      0.00000000    0.00000000    0.00000000
    1   -3.38420370   -6.05159685    4.94634912     -3.88665857    3.08330576    0.08708605      0.00000000    0.00000000    0.00000000
    1   -3.49548370   -4.20084289    4.97499912     -3.23411894   -4.44365343    0.10308501      0.00000000    0.00000000    0.00000000
    8   -3.94175760    6.69441935   -8.67550362      4.83375520   -2.36740196   -5.34104682      0.00000000    0.00000000    0.00000000
    1   -4.56741666    5.97243441   -8.38011058     -1.72512849    5.96634955    1.88139183      0.00000000    0.00000000    0.00000000
    1   -3.79272667    7.65593336   -8.44475254     -3.95312698   -1.86912165    2.65457831      0.00000000    0.00000000    0.00000000
    8   -2.31213323   -3.34758178   -0.57734649      6.11016412   -3.76704759   -1.50570735      0.00000000    0.00000000    0.00000000
    1   -3.12957628   -3.92173573   -0.62316548     -0.57081798    4.68471941    1.18496221      0.00000000    0.00000000    0.00000000
    1   -2.12044332   -2.38156578   -0.40403749     -5.14325076   -1.15311024    0.27347898      0.00000000    0.00000000    0.00000000
    8  -11.36307530   -2.71991126    1.32219658      0.74442893  -10.54427399   10.70480266      0.00000000    0.00000000    0.00000000
    1  -10.47816534   -2.27146017    1.44786464     -6.06145908   -0.49144575   32.34394757      0.00000000    0.00000000    0.00000000
    1    6.67787873   -2.46719316    1.44998757      2.42560049    4.61551892    0.43973092      0.00000000    0.00000000    0.00000000
    8    0.78371956   -5.83634224    7.60260734     -0.32605438   -0.14836863   -7.18673189      0.00000000    0.00000000    0.00000000
    1    0.64853257   -6.73938221    8.01029642      0.90430054    3.87970514    3.48353575      0.00000000    0.00000000    0.00000000
    1    0.97234756   -4.91483427    7.94203142     -1.63691930   -3.21586360    3.63968307      0.00000000    0.00000000    0.00000000
    8  -35.06589751   11.91961134  -85.82299613      0.04252818    7.30590960   -1.01627906      0.00000000    0.00000000    0.00000000
    1  -16.99424848   11.54806526  -85.81372910      3.67817747   -3.65096127    0.67728410      0.00000000    0.00000000    0.00000000
    1  -34.14186653   11.54906325  -85.72903511     -3.72070565   -3.65494833    0.33899496      0.00000000    0.00000000    0.00000000
    8   -0.66342674    6.25340065   -6.57814861      4.12579848    2.87851024    5.55581217      0.00000000    0.00000000    0.00000000
    1   -0.20231882    5.51140463   -7.06475667     -4.78508069    1.02644863   -1.96678943      0.00000000    0.00000000    0.00000000
    1   -1.54404478    6.72188958   -6.64883768      0.57883457   -3.93680118   -3.53171608      0.00000000    0.00000000    0.00000000
    8    0.42743513   -1.65316682    2.18888666     -5.83277541    2.11101499    3.71193203      0.00000000    0.00000000    0.00000000
    1    0.27223821   -1.57941485    1.20377664      4.73995246   -1.74979836    1.31090486      0.00000000    0.00000000    0.00000000
    1    1.18891119   -1.92128385    2.77899959      1.07741166   -0.39221506   -5.04107328      0.00000000    0.00000000    0.00000000
    8   -5.36059459   -3.67456479    3.98064930      0.26042681   -7.19183852   -2.04530126      0.00000000    0.00000000    0.00000000
    1   -4.46614562   -3.32630270    4.26107731     -3.73085331    3.94365915    0.00684698      0.00000000    0.00000000    0.00000000
    1   -6.27996754   -3.29513970    3.87693231      6.60324800    1.96751062    0.19630307      0.00000000    0.00000000    0.00000000
    8   -3.03937270   -0.37523826    7.57323525      4.38246257   -1.09333223   -6.05979856      0.00000000    0.00000000    0.00000000
    1   -3.03097377    0.56206272    7.92160733     -3.16055332   -3.02576551    2.78975051      0.00000000    0.00000000    0.00000000
    1   -3.49657174   -1.22992120    7.81911133     -0.48994120    4.25406153    2.40348865      0.00000000    0.00000000    0.00000000
    8    5.85335470   -6.13646219   -6.52749686     -0.87288042    2.70622408    6.72881765      0.00000000    0.00000000    0.00000000
    1    6.80071370   -6.05005723   -6.83573694     -3.04838616   -2.08840019   -3.35381420      0.00000000    0.00000000    0.00000000
    1    4.99828374   -6.47786423   -6.91770794      3.71376358   -0.51878938   -2.19035617      0.00000000    0.00000000    0.00000000
    8   -1.65319086    5.47917055    0.72144017     -2.15878583   -6.53474434    2.91012932      0.00000000    0.00000000    0.00000000
    1   -2.40631979    6.06296862    0.41821813      4.42209770    2.49796038   -0.96704783      0.00000000    0.00000000    0.00000000
    1   -0.65496185    5.53806063    0.72758512     -2.21998191    3.74967541   -1.73579154      0.00000000    0.00000000    0.00000000
    8   -6.26231710    3.67193845    6.09375877      0.72719389   -6.93199409    1.95180643      0.00000000    0.00000000    0.00000000
    1   -5.62010012    3.96177254    5.38416677     -3.12940833    3.78338896    1.54710538      0.00000000    0.00000000    0.00000000
    1   -6.99999508    4.10098853    6.61501873      2.35238846    3.13713403   -3.62138628      0.00000000    0.00000000    0.00000000
    8   -9.35728012   -9.05734354   -7.54029211     -4.84138560   -2.57573662    5.19215767      0.00000000    0.00000000    0.00000000
    1   -9.10333606   -8.10560151   -7.36805417      2.22179927   -2.07343352   -4.02315419      0.00000000    0.00000000    0.00000000
    1   -9.16831005   -9.73488546   -8.25106316      2.51920514    4.51868290   -0.97483443      0.00000000    0.00000000    0.00000000
    8   -8.04146982    8.66066550    7.41732500      4.41657060   -5.89655170   -0.21785162      0.00000000    0.00000000    0.00000000
    1   -7.58815389   -9.54070645    7.81313397     -4.71252155    0.73412030   -1.59218136      0.00000000    0.00000000    0.00000000
    1   10.05341415    8.45936059    7.04288201      0.34823200    4.99024700    1.64454712      0.00000000    0.00000000    0.00000000
    8    7.11715534   -0.60520238   -6.03184335      4.07977821   -6.02562526    1.55163736      0.00000000    0.00000000    0.00000000