 BEGIN_INFO
   #
   # This is a XCRYSDEN-Structure-File
   # aimed for Visualization of Fermi Surface
   #
   # Case: Tight-binding calculation
   #
   # Launch as: xcrysden --xsf HICOLM.XSF
   #
 END_INFO
 # estrutura final
CRYSTAL
PRIMVEC
      19.00000000       0.00000000       0.00000000
       0.00000000      19.00000000       0.00000000
       0.00000000       0.00000000      19.00000000
PRIMCOORD
  300    1
    8    5.31004855   -6.73066740    0.94746621     24.22990695   88.42924377   29.73532602      0.00000000    0.00000000    0.00000000
    1    4.73719817   -5.91928824    0.83137786     -0.86410105    2.22721047    1.80113970      0.00000000    0.00000000    0.00000000
    1    5.31654005   -7.52656533    1.55097901     -4.25784088  -12.05787675    4.47455227      0.00000000    0.00000000    0.00000000
    8    5.32296817    1.21767901   -3.22382002   -160.95975609   21.31187714  198.64701118      0.00000000    0.00000000    0.00000000
    1    5.69682354    0.34408530   -3.52385569     17.53050473  -29.03447564  -25.39108189      0.00000000    0.00000000    0.00000000
    1    5.68919821    2.12512506   -3.00949092      5.42533254   12.13398656   -2.78361124      0.00000000    0.00000000    0.00000000
    8    2.38632907    1.11622905   -7.64568081      0.14636608  -32.07708444  -22.15672397      0.00000000    0.00000000    0.00000000
    1    2.11593517    1.50731075   -8.52478200      1.16718059    4.83167995    1.75865218      0.00000000    0.00000000    0.00000000
    1    3.19146560    0.64237777   -7.28628526     -0.78371421    6.00929862    3.38929528      0.00000000    0.00000000    0.00000000
    8   -3.21430928    4.05090779    5.83029066    -35.29751344  -37.94270164  100.61733803      0.00000000    0.00000000    0.00000000
    1   -2.42841214    3.48425930    6.07306294      4.54259907    4.48413166    2.23869783      0.00000000    0.00000000    0.00000000
    1   -4.07748472    3.91432985    5.34233602     10.67597868    1.49487395    2.63556457      0.00000000    0.00000000    0.00000000
    8   -2.49874812   -8.01312834   -3.98959752      5.05857279   -4.78578604   -0.00964299      0.00000000    0.00000000    0.00000000
    1   -1.82819025   -7.49120567   -3.46249773     -0.74821747    1.30855439    0.47358419      0.00000000    0.00000000    0.00000000
    1   -3.06252404   -7.84885509   -4.79938117     -2.26512262    2.16864603    0.92605222      0.00000000    0.00000000    0.00000000
    8    0.29213399   -3.65073285   -7.07157041    -65.32006243  -73.92637468  -17.59949066      0.00000000    0.00000000    0.00000000
    1    0.01100281   -4.24451820   -7.82519913      1.20146473    4.00361959   -1.70037962      0.00000000    0.00000000    0.00000000
    1    0.21111638   -2.67925842   -6.85121171     -0.87282756   -0.23601710   -9.64612252      0.00000000    0.00000000    0.00000000
    8    3.43121851   -1.49693798    7.32225272     19.91827233  -14.59501591   16.40257745      0.00000000    0.00000000    0.00000000
    1    2.96879059   -2.38202526    7.35475521      5.46320390    3.43474286   -7.70249964      0.00000000    0.00000000    0.00000000
    1    3.16321683   -0.54234156    7.44653223     -7.53584561    5.15602454   -1.25573221      0.00000000    0.00000000    0.00000000
    8   -6.43930613   -0.03328806    4.21390113     -1.63492233   -0.97299218  -10.25700532      0.00000000    0.00000000    0.00000000
    1   -6.95665498    0.82026110    4.15044248      0.28717990   -1.39575298    1.40131083      0.00000000    0.00000000    0.00000000
    1   -6.50487692   -0.87548102    4.74805714      0.23670556    0.89000482    4.29243355      0.00000000    0.00000000    0.00000000
    8    0.48626224    4.97208850    2.69698541     49.67662759 -239.79574039  217.89892361      0.00000000    0.00000000    0.00000000
    1   -0.13479306    5.69419823    3.01068187    -10.46616624    3.14099272    4.87851957      0.00000000    0.00000000    0.00000000
    1    0.40249421    4.15717980    2.12345793     17.96795138    3.71524546    1.02057789      0.00000000    0.00000000    0.00000000
    8   -3.53036381    5.66120962   -5.21916554     -0.25434697    5.49065104   -6.28944278      0.00000000    0.00000000    0.00000000
    1   -4.46668597    6.01185922   -5.20955521     -0.12057668   -0.57687509    1.24582265      0.00000000    0.00000000    0.00000000
    1   -2.62629893    6.03080654   -5.43410000     -4.73847629   -1.77740083    1.04388982      0.00000000    0.00000000    0.00000000
    8   -5.06662825    0.84571230    1.42599213     88.14991670  -67.38680537   33.34308987      0.00000000    0.00000000    0.00000000
    1   -5.78489848    0.14976768    1.43788630     -1.30731870    0.59681072    0.48243616      0.00000000    0.00000000    0.00000000
    1   -4.39011927    1.19256541    2.07608627     -1.70740650   -7.76632110    0.62222156      0.00000000    0.00000000    0.00000000
    8    0.36318865   -7.26198523   -7.36164891     -3.37886550   -6.98570629   -0.38347884      0.00000000    0.00000000    0.00000000
    1   -0.01230941   -6.33536508   -7.36204262      3.15102570   -0.99436741    5.38050370      0.00000000    0.00000000    0.00000000
    1   -0.01142122   -8.18972991   -7.35690417      3.47443865   -3.95857485   -0.19533838      0.00000000    0.00000000    0.00000000
    8   -5.05047063    2.00999335    7.16369658    -37.26514623  158.07213850   59.53509767      0.00000000    0.00000000    0.00000000
    1   -4.10405029    1.73169073    6.97649245     -2.59527244  -10.35844198   -3.70270583      0.00000000    0.00000000    0.00000000
    1   -5.81865675    2.35127373    6.63000328      1.63068769   -3.06416455    3.81111386      0.00000000    0.00000000    0.00000000
    8   -8.54321058   -4.22895616   -2.77738985      0.10857629    0.13973470    0.12948118      0.00000000    0.00000000    0.00000000
    1   -9.41826375   -4.70989968   -2.83090910      1.24970615    1.32054364    3.06491699      0.00000000    0.00000000    0.00000000
    1   -7.63459857   -4.42705336   -2.40965989     -0.08971483   -0.85177880   -0.09888951      0.00000000    0.00000000    0.00000000
    8   -3.82862568   -0.00932795   -5.97964342      2.42791213   -6.24465256    0.49130298      0.00000000    0.00000000    0.00000000
    1   -4.79974114    0.06554183   -5.75536433     -2.01528485    4.17055012    0.45540447      0.00000000    0.00000000    0.00000000
    1   -3.09743724    0.62519654   -6.23083603     -0.37149553    1.85567903   -0.56952202      0.00000000    0.00000000    0.00000000
    8   -8.42016946   -0.03445978   -8.53609800     -5.63698167    2.25051087    1.95906930      0.00000000    0.00000000    0.00000000
    1   -8.51408264    0.96074262   -8.54738412      1.34209128    3.37935536   -0.07726301      0.00000000    0.00000000    0.00000000
    1   -8.98084563   -0.81345219   -8.81739808      1.05023163   -0.06999466   -0.08721297      0.00000000    0.00000000    0.00000000
    8    1.81297116   -7.14005379    6.02087746     34.23025672 -137.41151392  156.92076141      0.00000000    0.00000000    0.00000000
    1    1.48846125   -6.41308330    6.63088488     32.02379672   -8.15805938   30.84920094      0.00000000    0.00000000    0.00000000
    1    2.68462244   -7.39938788    5.60043638      5.50842805    8.80966175  -19.47999400      0.00000000    0.00000000    0.00000000
    8    8.00686986    4.10228875    3.12935556    -16.39928817   -5.42637110   -2.29749137      0.00000000    0.00000000    0.00000000
    1    8.54068545    3.25939769    3.06605051      4.89758954   -0.99240316   -0.93295272      0.00000000    0.00000000    0.00000000
    1    7.43632610    4.64204188    2.50817486     13.28111877    5.24115086   -5.77750205      0.00000000    0.00000000    0.00000000
    8   -3.05586634    4.93972123   -1.56140856      4.57191379   -1.45093137    8.62605659      0.00000000    0.00000000    0.00000000
    1   -2.74610747    5.67110755   -0.95422235     -5.89894328    2.18356348   -8.97609977      0.00000000    0.00000000    0.00000000
    1   -3.04484491    3.93950080   -1.54704443      0.88099291   -0.88640270   -7.85147379      0.00000000    0.00000000    0.00000000
    8    1.08047739    0.38711356    5.71062934     70.90648053  121.94468879  -74.09103141      0.00000000    0.00000000    0.00000000
    1    1.65560547    0.51636619    4.90134692      4.09196888    4.00118936    3.01985308      0.00000000    0.00000000    0.00000000
    1    0.15404851    0.06426277    5.88899242      8.48792042  -10.59962358   -8.94076344      0.00000000    0.00000000    0.00000000
    8    3.53205032    6.51541887    1.57788836     45.58538593   94.06841910   93.02281516      0.00000000    0.00000000    0.00000000
    1    3.00275229    5.67074491    1.65613137    -28.10419340  -11.22841760    3.30849153      0.00000000    0.00000000    0.00000000
    1    4.49892826    6.75227995    1.49012454     21.36630903    4.40081514  -10.69657518      0.00000000    0.00000000    0.00000000
    8   -8.18040119    3.43637323   -0.48746065    -78.60825830   71.24988196  -78.80038215      0.00000000    0.00000000    0.00000000
    1   -8.26630543    2.44857607   -0.44006965     -1.60731894   -9.47974565   -0.28982402      0.00000000    0.00000000    0.00000000
    1   -8.80516974    4.22033286   -0.53974341     -2.99891153   -3.40351624    1.83120329      0.00000000    0.00000000    0.00000000
    8    1.79418918   -1.91668737   -6.59925889     63.58440287   70.42432747   23.19244586      0.00000000    0.00000000    0.00000000
    1    1.76968783   -1.47927395   -7.49857781      1.74755682    0.24907888   -0.94535536      0.00000000    0.00000000    0.00000000
    1    1.11647193   -2.21531243   -5.92576301     10.18224273   -2.05705919    7.25561248      0.00000000    0.00000000    0.00000000
    8    0.35961798   -7.66450621    2.29025040     -3.93832875   -1.11284763   -6.99912521      0.00000000    0.00000000    0.00000000
    1   -0.04839767   -8.56109943    2.46368346      3.25698204    0.34890212    3.98620985      0.00000000    0.00000000    0.00000000
    1    0.02687604   -6.72365166    2.22638174     -0.94772857   -2.65795454    1.64084182      0.00000000    0.00000000    0.00000000
    8   -2.27314420   -8.84734026   -9.41421224     -0.24415397    4.00391660    1.70976728      0.00000000    0.00000000    0.00000000
    1   -3.17612387   -8.70813932    9.19556151      2.00443188   -1.51056826   -1.37766151      0.00000000    0.00000000    0.00000000
    1   -1.60730712   -8.27648435   -8.93308778      0.93431955   -0.04867288   -5.89569323      0.00000000    0.00000000    0.00000000
    8   -7.78311033    7.96782589    1.98547842     -4.37216863    5.33711100   -0.36383667      0.00000000    0.00000000    0.00000000
    1   -8.49031729    7.33580768    1.66922287      0.56937553    1.47253419    1.32839253      0.00000000    0.00000000    0.00000000
    1   -6.81297380    7.90309534    2.22079029     -1.55058889   -2.32180489    1.22460882      0.00000000    0.00000000    0.00000000
    8   -6.66415338    2.43454613    0.87218050     14.43606039    8.06722545   72.27098181      0.00000000    0.00000000    0.00000000
    1   -6.04198950    2.43436629    1.65138337      4.14324968   -6.31281533   -7.14972837      0.00000000    0.00000000    0.00000000
    1   -6.97629217    3.08943922    0.18843051    -19.64802274   16.66881046  -15.52958986      0.00000000    0.00000000    0.00000000
    8   -6.83550961    4.32390396    5.12972792      9.27834751   -6.63350267   -6.17270553      0.00000000    0.00000000    0.00000000
    1   -7.49575329    3.57354995    5.09028431     -5.06273003    2.21374061    0.61637941      0.00000000    0.00000000    0.00000000
    1   -5.84288809    4.40482914    5.21728763     -2.18578789    6.97281656    4.72180868      0.00000000    0.00000000    0.00000000
    8    3.27542444   -6.87427206   -6.09833945    -23.89173043   -8.07238554  -64.39280924      0.00000000    0.00000000    0.00000000
    1    3.80751796   -6.07989673   -5.80727102     -8.21713445   -5.34982223    1.02886342      0.00000000    0.00000000    0.00000000
    1    2.45794604   -7.34956631   -5.77517275     -3.41784308    0.67802152   -7.18310705      0.00000000    0.00000000    0.00000000
    8    4.96537071    3.02328348    3.59008941     29.90711494  -50.03150237  -20.54985420      0.00000000    0.00000000    0.00000000
    1    4.00427693    3.29817765    3.59287814      1.74174635    3.37695673    5.72271630      0.00000000    0.00000000    0.00000000
    1    5.85065314    3.49084854    3.58491575     -6.05478104  -25.87933111   14.46571836      0.00000000    0.00000000    0.00000000
    8    2.68496350   -3.77754849    2.94888662    -90.92637081 -235.33495617   -0.23895386      0.00000000    0.00000000    0.00000000
    1    3.54479635   -4.19903894    3.23228718      2.19906141    6.23126210   -2.55670928      0.00000000    0.00000000    0.00000000
    1    1.75043253   -4.09162011    2.77744176      0.67349179   -0.49008195    0.03672192      0.00000000    0.00000000    0.00000000
    8    7.46726740    7.92638867    5.92787439     22.68459411   -2.44625800   20.18866303      0.00000000    0.00000000    0.00000000
    1    7.31086425    8.90779862    6.01997682      1.84804712   -2.55406904   13.21927096      0.00000000    0.00000000    0.00000000
    1    8.26574438    7.32360834    5.92497287     -0.55303995   -6.50233804    0.09621829      0.00000000    0.00000000    0.00000000
    8    5.56949482    2.81242505    1.36521337    266.87081082 -215.91509612   68.81222081      0.00000000    0.00000000    0.00000000
    1    4.72745143    2.36575635    1.06442418      0.83250202   27.17780146   -1.19339016      0.00000000    0.00000000    0.00000000
    1    5.80268285    3.53821452    2.01338926    -17.38406064  -33.10294075   -5.51953809      0.00000000    0.00000000    0.00000000
    8   -4.65727365   -0.09154620    6.46793169     42.64219255 -166.43308432  -56.27661122      0.00000000    0.00000000    0.00000000
    1   -4.22973872   -0.89828369    6.06152721      0.10132780    2.67627195    0.34800407      0.00000000    0.00000000    0.00000000
    1   -5.21682111    0.09848261    7.27452805     -1.39415261   13.93574977    4.45506025      0.00000000    0.00000000    0.00000000
    8    4.44656394    3.53059153    5.74487593     71.17737385  -97.57780266  139.87416529      0.00000000    0.00000000    0.00000000
    1    5.40733525    3.70442669    5.94717982     12.65917951    4.54359071   -5.50289929      0.00000000    0.00000000    0.00000000
    1    3.76418825    2.86450930    6.03687043     28.76164633  -39.65600319   35.65085386      0.00000000    0.00000000    0.00000000
    8    2.80067111    5.67992219   -6.70055340    150.79684344  -71.69477271 -156.34511450      0.00000000    0.00000000    0.00000000
    1    2.57213116    5.46946619   -5.74886951     -1.63133003   -8.37982249   34.82542955      0.00000000    0.00000000    0.00000000
    1    2.34189384    5.62778628   -7.58178228      0.66560298   -2.28204199   -5.37908576      0.00000000    0.00000000    0.00000000
    8   -2.07065962    6.03113257    8.23893771      3.59149176   -2.98064648    7.84608847      0.00000000    0.00000000    0.00000000
    1   -2.92524313    5.51614312    8.31446939     -2.60994765   -1.53160537   -3.13044054      0.00000000    0.00000000    0.00000000
    1   -1.09718023    5.80594385    8.20009110     -3.73218148    0.24591267   -0.66708082      0.00000000    0.00000000    0.00000000
    8    7.01276443    1.66143174    5.14802764    -46.29192670  155.10864217 -110.07132171      0.00000000    0.00000000    0.00000000
    1    7.43937126    2.01740756    4.30976808     -5.91387838   -5.39153376    6.97920035      0.00000000    0.00000000    0.00000000
    1    7.03636904    0.79141835    5.63735206     18.50584902  -16.48901664   23.15106027      0.00000000    0.00000000    0.00000000
    8    5.96564504    0.96761658    8.06771550     37.16919760  -87.02163138 -143.43459304      0.00000000    0.00000000    0.00000000
    1    6.13250420    1.84003057    8.52016086     -0.56572103    5.62797068   14.52955715      0.00000000    0.00000000    0.00000000
    1    6.10942165    0.00195256    8.29336003      3.61510634    6.61919007    4.06439867      0.00000000    0.00000000    0.00000000
    8    0.81362989   -1.47124368    6.94836340    -49.66838755 -152.20162591  101.80657240      0.00000000    0.00000000    0.00000000
    1    1.33357594   -2.04868095    7.57535578     -1.95414762    7.23972756   -0.29185811      0.00000000    0.00000000    0.00000000
    1    0.02941239   -1.59478721    6.33904514      3.37902497   -2.47099013   -0.68947182      0.00000000    0.00000000    0.00000000
    8    9.49268812   -6.92015669   -6.65100588     -6.59628255   -0.64204712   -3.69574930      0.00000000    0.00000000    0.00000000
    1   -8.52653681   -7.12500714   -6.72997068      0.95021095    1.54403593   -0.77077187      0.00000000    0.00000000    0.00000000
    1    8.76159661   -6.65325481   -7.27776139     -0.79370866   -0.91868897   -0.75661103      0.00000000    0.00000000    0.00000000
    8   -8.41888346   -8.36909431    7.32165400     -0.49843315   -0.19742525    0.25573960      0.00000000    0.00000000    0.00000000
    1   -8.19068660   -9.31116168    7.56848739      1.89298879   -0.02509147   -1.53585892      0.00000000    0.00000000    0.00000000
    1   -8.04018135   -7.67351703    6.71118738      1.24661184   -1.57495855    0.84088476      0.00000000    0.00000000    0.00000000
    8   -4.69870557   -5.81712542    5.81073568      5.87225753   -2.18642685   -3.74990846      0.00000000    0.00000000    0.00000000
    1   -4.80634096   -6.79642496    5.64029091     -0.24661793   -1.85564948    1.52050067      0.00000000    0.00000000    0.00000000
    1   -5.29134909   -5.01187554    5.77992004      1.32685019   -1.76243455    2.50484605      0.00000000    0.00000000    0.00000000
    8    2.24874877    2.75100471    5.47707799    -60.01657415  -35.18684410  -22.40928700      0.00000000    0.00000000    0.00000000
    1    1.37558075    2.98415018    5.90727388     -6.70668212   10.10708934    4.18601487      0.00000000    0.00000000    0.00000000
    1    3.16579892    3.13566546    5.47266489     -9.21752258   31.92686868  -36.94131501      0.00000000    0.00000000    0.00000000
    8    2.21489142    0.42727077    0.42046200   -111.50413837   34.92303082   13.29875663      0.00000000    0.00000000    0.00000000
    1    2.56947643    1.27143716    0.01694093      4.26306461    1.42501802   -3.59930616      0.00000000    0.00000000    0.00000000
    1    1.37671700    0.15220640    0.89113859     -1.50108212    4.39784631    7.52921471      0.00000000    0.00000000    0.00000000
    8    1.65719177   -6.80582105   -0.37983692      3.96261654   13.67772471   -5.19972744      0.00000000    0.00000000    0.00000000
    1    1.31826698   -7.74081980   -0.27533876     -3.30546418   -1.67840278    1.60455807      0.00000000    0.00000000    0.00000000
    1    1.75697566   -6.15742239   -1.13475153     -0.66964919   -1.50306407   -0.84310721      0.00000000    0.00000000    0.00000000
    8    2.11268571    3.02704341   -5.92135021     67.45682031   33.67929565 -162.02173412      0.00000000    0.00000000    0.00000000
    1    2.15396744    2.55188137   -5.04090844     -5.89342807   11.20694834   17.96696382      0.00000000    0.00000000    0.00000000
    1    1.45618769    3.61155990   -6.39460145      6.85410800    5.34060902    3.58311873      0.00000000    0.00000000    0.00000000
    8    5.96493271    5.30285678    4.75636900     30.91082487   28.76813336  -18.14494477      0.00000000    0.00000000    0.00000000
    1    6.01744238    6.29077703    4.89336724      1.32124218    5.71109432   11.87431666      0.00000000    0.00000000    0.00000000
    1    6.01803315    4.67851141    3.97736597     -2.23495111   18.64994674   20.21029871      0.00000000    0.00000000    0.00000000
    8    6.13879208    2.91174818   -0.86780738    132.63991504   28.46923800 -156.95173507      0.00000000    0.00000000    0.00000000
    1    5.14060647    2.87568851   -0.89209230    -15.88174558   -8.38044226    5.56476072      0.00000000    0.00000000    0.00000000
    1    6.88738695    2.39692693   -1.28697975     -5.45508312    2.97251755    0.20050401      0.00000000    0.00000000    0.00000000
    8   -3.86666516   -3.31721321   -5.45530924      3.14398445   -8.76928896   -0.62728202      0.00000000    0.00000000    0.00000000
    1   -4.29576260   -2.64554355   -6.05950806      0.95452804    6.78437461    2.98683511      0.00000000    0.00000000    0.00000000
    1   -3.86276837   -3.50256732   -4.47269188      1.41633626    1.33658029    0.84956157      0.00000000    0.00000000    0.00000000
    8    3.65067535   -8.49315727    0.81554513    -43.92683764   -8.30623343    5.36357717      0.00000000    0.00000000    0.00000000
    1    3.68535986   -7.52125797    0.58322315      0.77350977    7.56539110   -1.35374976      0.00000000    0.00000000    0.00000000
    1    2.93293397   -9.15619250    1.03151532     -4.45721164   -0.58377701    4.58451839      0.00000000    0.00000000    0.00000000
    8    4.24265301    0.19966606   -0.61824544    149.16842845   66.13441284 -290.66463010      0.00000000    0.00000000    0.00000000
    1    4.71605503    0.73117660    0.07756046     23.28643900  -25.62561213  -13.85268746      0.00000000    0.00000000    0.00000000
    1    3.61840916    0.39471386   -1.37599018      6.14979428   -3.19650793   -4.59238453      0.00000000    0.00000000    0.00000000
    8    3.38895339    7.49306454   -4.99326794     50.56294645  144.55804384   -8.91997420      0.00000000    0.00000000    0.00000000
    1    3.20871819    8.46706946   -5.13055176      6.06580662    4.31261559    0.95695489      0.00000000    0.00000000    0.00000000
    1    4.19802114    6.92290856   -4.86807385      4.94187526    5.74328234  -11.12839366      0.00000000    0.00000000    0.00000000
    8    7.43621887    7.97283591   -1.77089650      4.06075167   -5.13886312    4.48630844      0.00000000    0.00000000    0.00000000
    1    7.55436923    8.80713983   -1.23085890     -0.12034286    8.66266065   -1.33559521      0.00000000    0.00000000    0.00000000
    1    8.03824487    7.33412030   -2.24786004     -1.09380366    1.36255049   -5.41738310      0.00000000    0.00000000    0.00000000
    8   -3.10160038   -2.61960796    0.64399886    -24.09955066   10.74155677    6.47767672      0.00000000    0.00000000    0.00000000
    1   -2.24769567   -3.02536063    0.97196934      7.66263742   -0.98475467   -8.71588663      0.00000000    0.00000000    0.00000000
    1   -4.06734542   -2.67371609    0.89783016      2.75327109   -2.20841327   -0.40032730      0.00000000    0.00000000    0.00000000
    8   -1.20910343    0.90245304    5.25662736    -68.46128829    5.54784701  -17.29530159      0.00000000    0.00000000    0.00000000
    1   -0.56986570    1.06387293    6.00668325      9.21461106   21.13918155    4.44552695      0.00000000    0.00000000    0.00000000
    1   -1.71297569    1.47218299    4.60700557     -2.55384224    3.65005940   -0.29559546      0.00000000    0.00000000    0.00000000
    8   -1.34523595    4.97835725    1.45967052   -166.20241420   -1.50569142 -133.37609329      0.00000000    0.00000000    0.00000000
    1   -1.79795395    5.17478641    0.58703110      0.93560919   -4.59419296   -0.00698101      0.00000000    0.00000000    0.00000000
    1   -0.90872077    4.18404278    1.87842611     -6.96346753    0.82073632   -5.76632169      0.00000000    0.00000000    0.00000000
    8    6.15474953    2.87785267   -4.44305151     79.96685845  157.38146749  -91.69575942      0.00000000    0.00000000    0.00000000
    1    5.83370620    1.92906858   -4.46872561    -10.82713763  -15.63336365    6.03169324      0.00000000    0.00000000    0.00000000
    1    5.72381605    3.78047708   -4.43778562     -1.29652159    1.81344823   -4.11575315      0.00000000    0.00000000    0.00000000
    8    3.97728073   -1.31280787    0.92242445    -49.83296922 -295.12832694 -155.33221382      0.00000000    0.00000000    0.00000000
    1    3.35093210   -2.03462126    1.22111873    -23.77318165    7.01611967  -25.53454179      0.00000000    0.00000000    0.00000000
    1    4.12564626   -0.35127187    1.15530854     11.92379728   -1.12467939   -2.30329954      0.00000000    0.00000000    0.00000000
    8    6.38741638    3.67148593   -8.55726691    133.66027415  188.54026532   46.72638595      0.00000000    0.00000000    0.00000000
    1    5.55686498    3.10443193   -8.60925667    -13.15574253  -31.82035549   -4.27104452      0.00000000    0.00000000    0.00000000
    1    6.57197304    4.64206151   -8.38734970     -0.91601370   -7.18818880    2.48055106      0.00000000    0.00000000    0.00000000
    8    0.88536951    6.80783768   -6.28729884   -161.80304304   71.81095869   34.64286679      0.00000000    0.00000000    0.00000000
    1    1.76688439    7.25052109   -6.16869849     19.73138841   -2.90589232   -1.85331733      0.00000000    0.00000000    0.00000000
    1   -0.07613249    7.05667449   -6.16408682      4.66041094    5.39087464   -4.13195197      0.00000000    0.00000000    0.00000000
    8    9.28890026    3.28825833   -2.97123278      1.76781658    2.86535568   -0.24917284      0.00000000    0.00000000    0.00000000
    1    9.15342232    2.38615700   -2.56370559      1.80767281   -0.34129311   -6.54451393      0.00000000    0.00000000    0.00000000
    1    9.47715811    4.21019790   -2.63245010     -0.68304020   -3.65901880   -2.83384850      0.00000000    0.00000000    0.00000000
    8    1.03225122    0.33383249    2.54685821     32.26278444  -37.97992050  126.21156598      0.00000000    0.00000000    0.00000000
    1    0.10465305   -0.03792855    2.55617080      0.18782074  -17.38787023   40.76605562      0.00000000    0.00000000    0.00000000
    1    1.95597720   -0.03637578    2.64099338      4.70398994    2.09906380   -5.63941624      0.00000000    0.00000000    0.00000000
    8    8.12304258   -4.51937011    3.36369682    -68.69066389   33.45070752 -161.00648849      0.00000000    0.00000000    0.00000000
    1    8.58189715   -5.26537687    2.87699917     -2.83741112   -0.69453764    2.04638227      0.00000000    0.00000000    0.00000000
    1    7.24051499   -4.05435035    3.29297648      1.92179409   -2.85087263    1.95824167      0.00000000    0.00000000    0.00000000
    8   -9.45746084    6.94082405   -6.58123274     -3.67697501    1.39673661   -2.49820390      0.00000000    0.00000000    0.00000000
    1    9.38294986    7.01597704   -7.57090764     -1.66143228   -2.70004593    0.83083792      0.00000000    0.00000000    0.00000000
    1   -8.69609966    6.67276967   -5.99088001     -2.90785147   -2.89242353    0.07036915      0.00000000    0.00000000    0.00000000
    8    2.56791047    5.44189665   -4.41191685    -53.98898364 -139.80754472  141.37580048      0.00000000    0.00000000    0.00000000
    1    3.46250269    5.79103755   -4.13012152     -7.61034327    1.49915909    2.22187915      0.00000000    0.00000000    0.00000000
    1    1.64917855    5.82198770   -4.51460383     -4.64918201    8.33961495   -0.79547685      0.00000000    0.00000000    0.00000000
    8    6.04649939   -7.97512372   -1.01505614     22.57933328  -31.32599018  -56.61278846      0.00000000    0.00000000    0.00000000
    1    6.05300299   -7.03939320   -0.66693007     -5.88135484    5.42211079   12.13651677      0.00000000    0.00000000    0.00000000
    1    5.58857972   -8.83030474   -0.76922435     -3.05873411    3.89578655    2.33087330      0.00000000    0.00000000    0.00000000
    8   -2.78371867    4.65532721    3.61527824     -1.60369285   14.15062178  -78.21497163      0.00000000    0.00000000    0.00000000
    1   -1.83695250    4.74163487    3.30698769     -3.43215017   10.54815307   -5.95306633      0.00000000    0.00000000    0.00000000
    1   -3.63859111    4.31440386    3.22449249      5.91363950    2.80461728   -1.83228558      0.00000000    0.00000000    0.00000000
    8   -0.25611186   -6.43781315    6.06484711   -247.63269413  102.43657891   16.40216097      0.00000000    0.00000000    0.00000000
    1   -1.00560159   -5.84632254    5.77002432      0.43940853   -3.26951271   -2.56010356      0.00000000    0.00000000    0.00000000
    1    0.75914732   -6.37100093    6.07744300     -5.63026474  -33.82489814  -44.65572118      0.00000000    0.00000000    0.00000000
    8    4.41414921   -6.61116733   -3.98944794     27.71917349   16.23632564   51.07968379      0.00000000    0.00000000    0.00000000
    1    5.05527265   -6.32201484   -4.69938734      4.14699675   -6.48458301    6.43454512      0.00000000    0.00000000    0.00000000
    1    3.67637783   -6.18197530   -3.46848665      2.27541762   -5.11327147    0.84355084      0.00000000    0.00000000    0.00000000
    8    5.64797357    0.08655193    1.48359520    -39.14250691  263.66740486  226.58584837      0.00000000    0.00000000    0.00000000
    1    5.90297136    1.04211185    1.65185042      9.00050481   16.38899506    6.32451686      0.00000000    0.00000000    0.00000000
    1    5.83871417   -0.58470948    0.76568442     25.32804907  -30.67675497  -21.92731136      0.00000000    0.00000000    0.00000000
    8    0.86447860   -0.02746505   -2.18650354     -4.89524088    6.87840213    7.47573396      0.00000000    0.00000000    0.00000000
    1    1.31763526    0.77110051   -1.79083383      5.12277160   -2.92985284   -4.26873674      0.00000000    0.00000000    0.00000000
    1   -0.04067262   -0.22887167   -2.56094175      2.33945989   -0.85159374   -1.37554449      0.00000000    0.00000000    0.00000000
    8   -1.46773055    7.83351823    2.85909107      5.46849164    1.19604186   -1.62715307      0.00000000    0.00000000    0.00000000