 BEGIN_INFO
   #
   # This is a XCRYSDEN-Structure-File
   # aimed for Visualization of Fermi Surface
   #
   # Case: Tight-binding calculation
   #
   # Launch as: xcrysden --xsf HICOLM.XSF
   #
 END_INFO
 # estrutura final
CRYSTAL
PRIMVEC
      14.43164368       0.00000000       0.00000000
       0.00000000      14.43164368       0.00000000
       0.00000000       0.00000000      14.43164368
PRIMCOORD
  300    1
    8    2.40029289    2.43595895    0.92335138    -25.20059166   -7.35749451   -2.46065104      0.00000000    0.00000000    0.00000000
    1    3.22651361    1.88048578    0.89063024     12.90445685    4.72199687    2.44482389      0.00000000    0.00000000    0.00000000
    1    2.27819060    2.61557786    1.94304292     14.73197488    7.61014402    1.97631552      0.00000000    0.00000000    0.00000000
    8    2.65972101   -4.59337196   -1.82087763     63.96804639    4.31026122   37.51749739      0.00000000    0.00000000    0.00000000
    1    2.75436715   -5.57214546   -2.20736320      3.30092428   -9.18739051   -5.59598059      0.00000000    0.00000000    0.00000000
    1    3.57452272   -4.16856278   -2.13051869      5.63445518    6.23943328    3.85573377      0.00000000    0.00000000    0.00000000
    8    5.08576130   -6.27031670   -5.65622372     31.11511278  -10.64742409   20.96283144      0.00000000    0.00000000    0.00000000
    1    4.09069810   -5.97875552   -5.44531716     -9.65981862   -0.01623204   -3.78973629      0.00000000    0.00000000    0.00000000
    1    5.18378948   -5.81268349   -6.59440836     -3.72705067   -6.02876559  -11.33849216      0.00000000    0.00000000    0.00000000
    8    5.27075815   -0.64237136    5.11225851     -5.34205899   18.57715177    9.85122857      0.00000000    0.00000000    0.00000000
    1    5.91786973   -1.35212268    5.38041120      4.10952176  -13.13141162    0.27200777      0.00000000    0.00000000    0.00000000
    1    4.68985268   -0.87887848    4.32684030     -5.29814949   -4.67286307   -5.61762256      0.00000000    0.00000000    0.00000000
    8    0.64964672    2.90934427   -4.82322568     10.68052096   -2.79054090   23.85292690      0.00000000    0.00000000    0.00000000
    1    0.77124787    3.25895641   -5.78649852     -5.46750548   -2.72443793  -14.19289905      0.00000000    0.00000000    0.00000000
    1    0.71025354    1.92025410   -4.98774951     -6.88973629   -2.82954018  -14.56741928      0.00000000    0.00000000    0.00000000
    8    1.88789400    2.57190011   -1.86515733    -11.33582891   18.30263600   -9.12540929      0.00000000    0.00000000    0.00000000
    1    1.82503713    1.78437819   -1.18729782      6.73924826   -3.81175194    7.75527299      0.00000000    0.00000000    0.00000000
    1    1.38673926    2.21566549   -2.71998790     12.86703099   -1.34028526   -4.06974086      0.00000000    0.00000000    0.00000000
    8    5.13273778    2.07962694    0.03114294     -3.06503009  -20.50882848    6.23153134      0.00000000    0.00000000    0.00000000
    1    4.86703507    1.88578058   -0.98287822     -8.89703985    0.09836008  -12.07152577      0.00000000    0.00000000    0.00000000
    1    5.50186509    3.05920641   -0.03464634    -12.08369684    4.04948613   -1.35783040      0.00000000    0.00000000    0.00000000
    8   -0.33316416    4.21989974   -0.58525887     -7.23573565   23.55137176    2.92338106      0.00000000    0.00000000    0.00000000
    1    0.44958022    3.71444302   -1.00559983     11.72671506   -9.00384278   -1.41083046      0.00000000    0.00000000    0.00000000
    1   -0.65098039    3.45880893   -0.00326531      2.28775086  -12.89928065    5.76243722      0.00000000    0.00000000    0.00000000
    8    0.39934103   -4.69121200   -2.58197063    -86.14851941  -11.93162312  -53.45786824      0.00000000    0.00000000    0.00000000
    1    0.33296085   -5.30387809   -1.75053761      7.08568954   -4.64001222    5.92218509      0.00000000    0.00000000    0.00000000
    1    0.34258734   -3.67065905   -2.27457115      0.19897784   14.69082497   12.53034103      0.00000000    0.00000000    0.00000000
    8   -4.06680999    2.87244776   -0.05400913      7.08189006  -24.60400501   25.03666821      0.00000000    0.00000000    0.00000000
    1   -4.60876930    2.02711215    0.03829934     -7.01762855   -7.62873804   -3.16553608      0.00000000    0.00000000    0.00000000
    1   -4.89280213    3.42289529   -0.33789432     -4.95390831    6.37662923   -6.30536305      0.00000000    0.00000000    0.00000000
    8   -1.41089773    2.17784997    1.40936406     20.06479629  -14.00358898  -34.81280809      0.00000000    0.00000000    0.00000000
    1   -2.44388566    1.98711426    1.17180852     -6.26073633   -3.95695279   -3.77267846      0.00000000    0.00000000    0.00000000
    1   -1.20310463    1.18681820    1.29242510      0.27501727   -8.11194389   -3.88110319      0.00000000    0.00000000    0.00000000
    8    3.30815042    6.45608490   -0.10220759     -8.06371689   13.35456712   18.53058192      0.00000000    0.00000000    0.00000000
    1    3.22185001    6.27431683   -1.11018357     -0.06290926   -2.45634746  -11.52600612      0.00000000    0.00000000    0.00000000
    1    4.10093532    5.84038830    0.09713113    -17.27036916   -9.21252460    3.10463621      0.00000000    0.00000000    0.00000000
    8   -1.58843495   -3.73696516    4.17758490    -19.18986071    5.71208522   11.81586477      0.00000000    0.00000000    0.00000000
    1   -1.92329580   -4.37344246    3.45410261     -1.72166299  -13.01878166   -9.58010372      0.00000000    0.00000000    0.00000000
    1   -0.98277483   -3.18508525    3.60188196      4.58385367    3.50335749  -12.52093932      0.00000000    0.00000000    0.00000000
    8    3.51439968    7.02708752    7.05651029    -28.82469929   -4.63976980  -28.13017689      0.00000000    0.00000000    0.00000000
    1    3.28223356    6.47293747   -6.54902760     15.07758307   -5.98065542   -2.71813243      0.00000000    0.00000000    0.00000000
    1    4.52111492    7.03152250    7.19106899      5.36196269   -5.67387202    1.63202161      0.00000000    0.00000000    0.00000000
    8   -7.12044384    2.94589125    1.40695829     21.22454209   -3.71616578   24.00500461      0.00000000    0.00000000    0.00000000
    1   -6.59451133    2.39845459    0.72896970     -4.99875789   -9.35208629   -6.45599717      0.00000000    0.00000000    0.00000000
    1    6.70289672    3.55201785    0.83553395     -4.36484984   10.19864152    8.19403376      0.00000000    0.00000000    0.00000000
    8   -3.02396321    4.63918261   -1.67733321     -4.70671156    6.05541906  -39.95637098      0.00000000    0.00000000    0.00000000
    1   -2.49511168    3.75990416   -1.73386968     13.42187255   -1.97607111   11.60545094      0.00000000    0.00000000    0.00000000
    1   -2.71390223    5.08773856   -0.79276097      2.74396347    2.39558149    8.66090892      0.00000000    0.00000000    0.00000000
    8   -0.03897420   -2.21911618    5.79982427    -10.44170895   16.42455236   19.44012158      0.00000000    0.00000000    0.00000000
    1    0.45203402   -2.85453889    5.22480664      2.35615575   -1.15692232   -0.47700948      0.00000000    0.00000000    0.00000000
    1   -0.67340583   -1.89823342    5.07823107      4.38371038   -0.14098874   -4.46516660      0.00000000    0.00000000    0.00000000
    8   -6.02196894    6.52471728    2.83449845    -25.79801490    2.08620205   18.89895944      0.00000000    0.00000000    0.00000000
    1   -6.04456156   -7.19805900    2.09056355      5.76359177    7.80231780  -14.15654379      0.00000000    0.00000000    0.00000000
    1   -4.99838797    6.53745778    2.96380026      7.55614415   -2.30723972   -0.28860024      0.00000000    0.00000000    0.00000000
    8   -2.97650119   -1.81812827    0.82305592     36.86830238   11.54417863   11.34816177      0.00000000    0.00000000    0.00000000
    1   -3.78700835   -2.32140835    1.25804242     -8.45183377   -1.58348900   -8.91994878      0.00000000    0.00000000    0.00000000
    1   -2.77044701   -2.49285841    0.08373190     -7.07563407   -5.42460626   -6.27065669      0.00000000    0.00000000    0.00000000
    8   -2.40837917    1.17134094   -5.18277830     14.36682727   10.68256867   -7.39469313      0.00000000    0.00000000    0.00000000
    1   -3.14849353    1.13163100   -5.83573664     -4.52784279  -12.28973403    3.43503376      0.00000000    0.00000000    0.00000000
    1   -2.50270528    0.28691439   -4.64415713     -6.89225154  -10.17113766   -1.58271022      0.00000000    0.00000000    0.00000000
    8   -1.33611119    0.77842197    5.48816651    -10.52519575  -12.87393919    4.29141310      0.00000000    0.00000000    0.00000000
    1   -0.79043358    1.03616980    4.64686623      7.91694055    6.37603737   -9.30876868      0.00000000    0.00000000    0.00000000
    1   -1.60424732    1.70901605    5.78261577      0.21934454    5.42078392   -2.30899833      0.00000000    0.00000000    0.00000000
    8   -4.70182240    5.41385882    0.72268306      8.63641413    5.09944503    8.12369429      0.00000000    0.00000000    0.00000000
    1   -5.41496629    5.50440783    0.00002558      1.22537764    2.13900796   -6.69798668      0.00000000    0.00000000    0.00000000
    1   -4.90582667    4.55746964    1.22162762     -5.40983024   -3.06125603    4.95003083      0.00000000    0.00000000    0.00000000
    8    3.41708132    2.77320526    4.38651479    -24.70853841   21.62719459    8.88086630      0.00000000    0.00000000    0.00000000
    1    3.14244934    1.85049336    4.79734392      8.80538020  -15.90935450    4.38562336      0.00000000    0.00000000    0.00000000
    1    4.40643553    2.66152215    4.51103081     11.55289048  -11.94343790   -2.43884261      0.00000000    0.00000000    0.00000000
    8   -2.33375277    4.13078805    2.59576006    -15.65686309   67.59741369   42.21304593      0.00000000    0.00000000    0.00000000
    1   -1.70800225    4.30996710    1.76188324      4.57770603  -16.26606762   -6.07430042      0.00000000    0.00000000    0.00000000
    1   -3.13069363    3.58067829    2.18635822     -4.73801089   -8.47297728    0.51293707      0.00000000    0.00000000    0.00000000
    8   -5.04471162   -4.24838778    3.44040599    -25.88634856   12.10898000   28.14975188      0.00000000    0.00000000    0.00000000
    1   -4.07915074   -3.92537349    3.32897525      3.64344856   -8.72233951   -7.60891237      0.00000000    0.00000000    0.00000000
    1   -5.24397575   -4.36543518    2.45761222      3.69187999   -5.60560594  -11.86011433      0.00000000    0.00000000    0.00000000
    8   -5.05060703    4.60339368   -4.27196399     18.77640791   -0.15380707   -3.74399129      0.00000000    0.00000000    0.00000000
    1   -4.79642918    4.46605944   -3.27385072      1.10852245    4.05707155    6.87931133      0.00000000    0.00000000    0.00000000
    1   -6.06644006    4.82795705   -4.15671611     -5.20285090   -0.59413417   -6.58732238      0.00000000    0.00000000    0.00000000
    8    1.59008734   -5.53428502    5.58865685      3.16277617   28.00601282    0.45703918      0.00000000    0.00000000    0.00000000
    1    2.25193488   -6.33338208    5.56283204      1.31265768   -9.02093350    2.88705163      0.00000000    0.00000000    0.00000000
    1    0.68155705   -5.94347656    5.57822183     -0.10017897  -14.07270295   -1.38434812      0.00000000    0.00000000    0.00000000
    8   -3.04821629   -5.71522161    2.34641820      9.63376188   37.19598783    6.79442827      0.00000000    0.00000000    0.00000000
    1   -3.51037600   -6.64005319    2.50035958      4.36575534   -6.30162986   -0.46160989      0.00000000    0.00000000    0.00000000
    1   -2.36085483   -5.95868960    1.62965920     -1.78651556  -18.25384232   -4.27596094      0.00000000    0.00000000    0.00000000
    8   -2.16076959    6.51880707    1.07040837     18.14363403   19.76537036  -19.49345471      0.00000000    0.00000000    0.00000000
    1   -1.29570724    6.32033022    1.64052093     10.49194754   -4.06311374   10.08023455      0.00000000    0.00000000    0.00000000
    1   -2.83865358    5.84196298    1.48130673    -11.74309316   -9.44549919    2.35104658      0.00000000    0.00000000    0.00000000
    8   -5.95335755   -5.78629712    0.53105496      9.52667198   -5.53815675   28.27431142      0.00000000    0.00000000    0.00000000
    1   -6.33736266   -5.04315945   -0.06510825    -10.13519360    3.06839183  -10.08684031      0.00000000    0.00000000    0.00000000
    1   -5.78998592   -6.49337419   -0.16432473      3.45956501   -0.89480364  -11.21921464      0.00000000    0.00000000    0.00000000
    8    6.83110739   -3.00097954    4.56523807    -20.79465796   -9.59075079   12.93912449      0.00000000    0.00000000    0.00000000
    1    6.91868243   -2.25328785    3.87512425     15.82506980    7.87292302  -12.97797933      0.00000000    0.00000000    0.00000000
    1   -6.64714290   -3.36096787    4.34149083     15.91931797    1.41442630   -9.98475980      0.00000000    0.00000000    0.00000000
    8   -6.01642630   -6.83229265    5.33453733    -18.76818666   22.39653952   31.88030976      0.00000000    0.00000000    0.00000000
    1   -5.90753361   -6.23421377    4.45714705      8.17833673   -3.33583401   -9.97570287      0.00000000    0.00000000    0.00000000
    1   -6.12991507    6.62427444    4.97598852      8.27621503   -4.49193796  -10.44178128      0.00000000    0.00000000    0.00000000
    8   -6.91985188    1.95738481   -3.52699447     -2.12246116  -36.93952304   11.10504706      0.00000000    0.00000000    0.00000000
    1    7.14200821    2.77055938   -3.07921700      0.89667855   11.28804492   -5.07728217      0.00000000    0.00000000    0.00000000
    1   -6.00995785    1.97148386   -3.06163646     13.64663177    5.65255177  -10.14435869      0.00000000    0.00000000    0.00000000
    8    1.78380791   -2.87187243    0.73334719    -28.95221137   33.62224381    1.49203936      0.00000000    0.00000000    0.00000000
    1    2.03299628   -3.82163880    0.30677119      9.94116400   -6.93524703   -0.48210847      0.00000000    0.00000000    0.00000000
    1    2.25997645   -2.92780183    1.63591309     13.30994590   -8.88569681    5.16539860      0.00000000    0.00000000    0.00000000
    8    6.20314068   -5.25728406   -1.17345890     19.45081378   -7.42628844   -4.24992470      0.00000000    0.00000000    0.00000000
    1    6.12702231   -6.07152148   -1.81296027     -9.90557438   -0.03312947   -2.55386482      0.00000000    0.00000000    0.00000000
    1    5.22494882   -4.95024513   -1.28179621     -4.06423682    5.37070912    3.13104277      0.00000000    0.00000000    0.00000000
    8    6.31597055    3.92315824   -4.80142513    -17.64767176   20.62318119   15.93417497      0.00000000    0.00000000    0.00000000
    1    5.81546883    3.23731449   -5.38383224      0.77361108   -6.78399979   -4.96821820      0.00000000    0.00000000    0.00000000
    1    6.66459944    4.38247094   -5.61871539      9.09951905    2.43326204   -9.73924275      0.00000000    0.00000000    0.00000000
    8   -3.04692502   -5.52845715   -4.52867039    -19.36572355    5.85871804  -10.75362594      0.00000000    0.00000000    0.00000000
    1   -4.01199095   -5.67481562   -4.33393581      0.46328574   -0.39107012    5.18116849      0.00000000    0.00000000    0.00000000
    1   -2.54061690   -6.26371663   -3.97423882    -12.42400607   -5.37919188    9.69858834      0.00000000    0.00000000    0.00000000
    8   -3.42910208    6.70222353    4.54391476     -6.83500526   -4.14099700  -26.60405053      0.00000000    0.00000000    0.00000000
    1   -2.87999615    5.84819691    4.32230753     -2.90838038    4.88904359    2.34722854      0.00000000    0.00000000    0.00000000
    1   -2.90883037    7.02568008    5.34985559      9.03240789    3.74071839   15.00950086      0.00000000    0.00000000    0.00000000
    8   -2.09389164    5.72128740   -4.21527190      9.03165422   25.88776454   -6.98650010      0.00000000    0.00000000    0.00000000
    1   -2.85329069    4.98057561   -4.49206702     -3.21241337   -7.89761481    4.38927527      0.00000000    0.00000000    0.00000000
    1   -1.90406880    5.35418089   -3.29845705     -5.45470475   -7.73445966   10.02354584      0.00000000    0.00000000    0.00000000
    8   -1.29283763    4.71403881    5.37458729     -4.13227402  -39.96946786  -15.22932947      0.00000000    0.00000000    0.00000000
    1   -2.15505925    4.87255381    5.92917045     -7.57690981    5.64604389   12.22435790      0.00000000    0.00000000    0.00000000
    1   -1.81722887    4.84286003    4.49967341      4.11751711  -12.41470231   -6.69841974      0.00000000    0.00000000    0.00000000
    8    7.07331162   -0.32155967   -5.64652080     10.19085730  -15.21410597   -9.96410560      0.00000000    0.00000000    0.00000000
    1    7.11486123    0.46518655   -4.99106230      0.38184357   14.13963779   11.13084108      0.00000000    0.00000000    0.00000000
    1    6.03938655   -0.36463564   -5.49873872     -6.37057074    5.92252321    1.28098503      0.00000000    0.00000000    0.00000000
    8   -5.73334194    0.83073238    4.95594820      1.53760659  -18.28572373   -8.44432883      0.00000000    0.00000000    0.00000000
    1   -5.29636314    1.61283448    5.44801772      5.55500452    0.35609686   15.81026166      0.00000000    0.00000000    0.00000000
    1   -5.09932336    0.05762113    5.17686219     11.86231812   -2.71012952    6.15333140      0.00000000    0.00000000    0.00000000
    8    4.96815800   -5.05040748    2.59012887      6.29309394   -1.75425458   27.30278093      0.00000000    0.00000000    0.00000000
    1    4.24623393   -4.77933843    1.87551317     -7.17052983   -6.60334923  -14.47517911      0.00000000    0.00000000    0.00000000
    1    5.58752586   -4.19995810    2.72777806      6.96531495    7.25113968   -7.33513601      0.00000000    0.00000000    0.00000000
    8   -5.05622784    6.83333680   -1.86250566    -26.03378319   -5.36403643   11.96387509      0.00000000    0.00000000    0.00000000
    1   -4.23167761   -7.06061559   -2.13223897     13.17379178    4.39698096    0.26531003      0.00000000    0.00000000    0.00000000
    1   -5.63033258    7.10805314   -2.68226620      1.08425305    7.42520963  -14.31526312      0.00000000    0.00000000    0.00000000
    8    3.44569088   -2.57354649    3.31849553     -4.42119213   16.15586405  -25.96015895      0.00000000    0.00000000    0.00000000
    1    3.74725594   -3.58636906    3.11529361      1.54851308  -11.53184687   10.91742551      0.00000000    0.00000000    0.00000000
    1    3.32352865   -2.66978338    4.36621389     -4.13830388   -4.64222773   19.90296635      0.00000000    0.00000000    0.00000000
    8    2.45586845   -5.56874026    1.22635612      9.71807641   30.14920490    5.81237136      0.00000000    0.00000000    0.00000000
    1    2.15566172   -5.51101017    0.19183423      1.93643414  -13.29785076  -11.65127844      0.00000000    0.00000000    0.00000000
    1    2.49893880   -6.59269578    1.20517398      9.96723927    1.77983952  -15.05372536      0.00000000    0.00000000    0.00000000
    8   -2.83562271   -1.85716025   -5.19316116     11.30815736   15.67985864   23.86598641      0.00000000    0.00000000    0.00000000
    1   -3.68015005   -2.21780986   -5.63378442     13.57445488   -7.21581896    0.42426044      0.00000000    0.00000000    0.00000000
    1   -2.42170703   -2.36683397   -5.98606677      0.89733913  -11.57669734  -11.30314698      0.00000000    0.00000000    0.00000000
    8   -2.71396876   -3.90191352    7.09440930    -20.46208181   22.55026500   11.63176520      0.00000000    0.00000000    0.00000000
    1   -2.46237307   -3.85140929    6.10008189     12.58867402   -6.43490855  -10.53007608      0.00000000    0.00000000    0.00000000
    1   -2.43087305   -4.85868815   -7.10616345      2.86488821   -5.69100101   -6.63318879      0.00000000    0.00000000    0.00000000
    8    1.93351685    5.55395812    4.84200932     15.90292479   -5.72743494  -29.47466711      0.00000000    0.00000000    0.00000000
    1    2.14757201    4.54171748    4.92567870      2.21015821   -8.01396562    8.43213060      0.00000000    0.00000000    0.00000000
    1    2.48581283    5.85537328    5.61445133      7.96681348    3.39834433    9.45230293      0.00000000    0.00000000    0.00000000
    8   -4.22607635    2.81094472    6.74908278     -6.90638985  -15.15137726  -24.34368617      0.00000000    0.00000000    0.00000000
    1   -4.22122175    2.03150539   -7.05521078     -1.51696160   -0.16409437    6.38527992      0.00000000    0.00000000    0.00000000
    1   -3.82973949    3.52232886   -7.09253179      2.56413258   13.42843159    8.02566775      0.00000000    0.00000000    0.00000000
    8    4.25658381    4.22561020   -2.48706225     20.22922178   21.58404973   13.83022046      0.00000000    0.00000000    0.00000000
    1    3.55333493    3.52919883   -2.45664768    -17.29934236  -10.09624007    2.17321163      0.00000000    0.00000000    0.00000000
    1    4.64707189    3.96857098   -3.40114116      1.54602266   -4.46227185  -10.49013416      0.00000000    0.00000000    0.00000000
    8   -2.44219602   -2.64057226   -2.24223972     -1.98816551    1.87951137   23.27551826      0.00000000    0.00000000    0.00000000
    1   -3.30056959   -3.21555675   -2.12265848     -7.34420200   -4.87063495  -10.44160539      0.00000000    0.00000000    0.00000000
    1   -2.74488866   -2.17051175   -3.09535696     -3.68890500   -1.24248089  -16.28773270      0.00000000    0.00000000    0.00000000
    8    5.70188466    5.11372878    0.55483240     19.66295297  -16.68704778  -31.44500323      0.00000000    0.00000000    0.00000000
    1    5.34456133    5.60672005   -0.28433799      3.77990557    6.69542534   -3.21781161      0.00000000    0.00000000    0.00000000
    1    5.20871435    5.63793967    1.34493577     -7.73805656    1.50211939   17.97993014      0.00000000    0.00000000    0.00000000
    8    3.94350390    0.94634966   -2.74863533     18.05558856    1.65895981   16.28076824      0.00000000    0.00000000    0.00000000
    1    4.23923149    1.54512060   -3.44302202     -2.60739998   -3.20304987  -12.01390302      0.00000000    0.00000000    0.00000000
    1    3.41671699    0.35505230   -3.41361615     -4.06329354   -3.00427129   -3.45244653      0.00000000    0.00000000    0.00000000
    8    4.18120123   -7.12730959   -2.69680050      6.76572122   16.59607889   15.08907664      0.00000000    0.00000000    0.00000000
    1    3.83460909   -7.11170492   -3.67877411     -7.18026572   -7.95003771   -9.58447222      0.00000000    0.00000000    0.00000000
    1    4.72914457    6.41062915   -2.75187363     -3.99986826  -11.42120156   -8.37397803      0.00000000    0.00000000    0.00000000
    8   -3.88131773    1.90871662   -2.66839833    -30.28841230   -9.82629187   -3.41937770      0.00000000    0.00000000    0.00000000
    1   -2.88853960    1.83253541   -2.79499210     16.34310081    2.23042493   -2.82548227      0.00000000    0.00000000    0.00000000
    1   -3.95686082    2.80034074   -2.20714363     10.68061851    6.53800718    5.80078281      0.00000000    0.00000000    0.00000000
    8    5.56739744    4.67302882    6.03248166      0.30800335    0.98014759   24.44355046      0.00000000    0.00000000    0.00000000
    1    5.25219974    5.15629049    5.16180409      3.25146865    7.46406454   -9.21160340      0.00000000    0.00000000    0.00000000
    1    5.92452351    3.87272308    5.53234067      6.70084716   -8.40391067  -11.41112355      0.00000000    0.00000000    0.00000000
    8    3.93812607   -1.00547546   -5.22467644     21.99905179   13.29247267   -2.34481719      0.00000000    0.00000000    0.00000000
    1    3.03670690   -0.90522352   -4.75538991    -18.01281156   -9.02481712    4.95754809      0.00000000    0.00000000    0.00000000
    1    3.59698842   -1.73779454   -5.92038472     -0.01620425   -7.09418376    6.25673950      0.00000000    0.00000000    0.00000000
    8   -0.13009406   -1.44694535    2.69933603    -13.83616180  -19.92409906    8.71038911      0.00000000    0.00000000    0.00000000
    1    0.20162946   -0.51904688    2.32742205      4.88823164   12.44431008    3.94743468      0.00000000    0.00000000    0.00000000
    1    0.56685589   -2.08695838    2.26055272      8.09605772    0.62979296   -7.05313267      0.00000000    0.00000000    0.00000000
    8    0.04995996   -1.89359406   -1.57028288     26.00625772  -40.20193872  -25.29271043      0.00000000    0.00000000    0.00000000
    1   -0.86130467   -1.59284359   -1.23642584    -11.08623215   -2.06969881  -10.09765928      0.00000000    0.00000000    0.00000000
    1    0.53858500   -1.83733601   -0.65915301     11.91345521  -22.11359135   -9.39757077      0.00000000    0.00000000    0.00000000
    8   -0.06498223    7.11575754   -1.07210606     14.49791799   27.41454500   -5.46469742      0.00000000    0.00000000    0.00000000
    1   -0.72809305   -7.20308356   -0.30933745     -1.82467591  -18.55754834    7.87951930      0.00000000    0.00000000    0.00000000
    1    0.27485597    6.14368598   -0.99927648     -5.03483789  -15.68875065    5.88480155      0.00000000    0.00000000    0.00000000
    8    2.74805220    0.62938978    6.49677593      3.41086124   25.60139426   -5.47987741      0.00000000    0.00000000    0.00000000
    1    3.64421281    0.07984512    6.30815891      7.87425008  -13.17795228   -7.11151780      0.00000000    0.00000000    0.00000000
    1    2.20632079   -0.14112779    6.91287210     -8.45488368   -8.74057666   -2.31616588      0.00000000    0.00000000    0.00000000
    8    6.52476421    2.13717455    4.35800671    -34.20045731   35.80296318    2.73472333      0.00000000    0.00000000    0.00000000
    1    6.66103351    1.17107873    4.56085413      8.99222356  -11.83593293    2.99659858      0.00000000    0.00000000    0.00000000
    1    6.94826910    2.18900610    3.42904071     -1.55967520   -4.32015136   -8.77699945      0.00000000    0.00000000    0.00000000
    8    0.68533242    1.38707167    3.01218408     -2.61856192  -13.42850487   17.13124215      0.00000000    0.00000000    0.00000000
    1    0.70981773    1.76557010    2.05668056     -2.31202399    7.33759264   -9.61191159      0.00000000    0.00000000    0.00000000
    1    1.69382543    1.41259316    3.22846293     10.16698799   -2.82287310   -0.64334513      0.00000000    0.00000000    0.00000000
    8   -6.38399788    0.87257305   -0.67037384     20.42352298   13.96647961   10.16077922      0.00000000    0.00000000    0.00000000
    1    7.14872477    0.47170009   -0.93021877     -8.83220608   -5.94077862   -0.23226384      0.00000000    0.00000000    0.00000000
    1   -6.20670044    1.49646138   -1.46942580     -4.77986796   -5.00003312   -6.09864244      0.00000000    0.00000000    0.00000000
    8    0.18806772    0.08951670   -6.48621541     24.55331895    3.98043665   29.00698417      0.00000000    0.00000000    0.00000000
    1    0.08926857   -0.61412024    7.19751281     -9.54590599   -9.20696972  -13.77521603      0.00000000    0.00000000    0.00000000
    1   -0.77120428    0.50263896   -6.47887158    -11.84532352    1.28698682   -5.39683206      0.00000000    0.00000000    0.00000000
    8   -6.66193944    4.19585225   -1.34961331     11.33670299  -22.38413249   -1.46232635      0.00000000    0.00000000    0.00000000
    1    6.94780980    4.46450309   -0.77117286     -7.95163760   11.67509645    4.73463181      0.00000000    0.00000000    0.00000000
    1   -6.66368080    5.06706260   -1.87479589      0.87372281   10.38875119   -0.14652789      0.00000000    0.00000000    0.00000000
    8    0.88286086    6.85016628    2.19749302    -23.31299207   -4.49088443   -8.24182935      0.00000000    0.00000000    0.00000000
    1    1.76566491    6.86305780    1.65747175     -2.32669756  -15.40396427    5.89866285      0.00000000    0.00000000    0.00000000
    1    1.28022552    6.48560990    3.07340641      6.11221621   -4.66993991   11.88309737      0.00000000    0.00000000    0.00000000
    8   -6.05194509   -4.39451516    6.97003523     -1.41883843   13.68694619   17.95118688      0.00000000    0.00000000    0.00000000
    1   -6.25848320   -5.29122579    6.54706443      6.32278273  -16.58293178  -11.79529839      0.00000000    0.00000000    0.00000000
    1   -5.12799686   -4.19745162    6.51983127      4.37546915   -7.27118961   -9.64232831      0.00000000    0.00000000    0.00000000
    8   -5.30001808   -3.10436169   -5.07771947    -12.06278645   10.45841636   15.27852798      0.00000000    0.00000000    0.00000000
    1   -5.13501263   -2.29808985   -5.67366329    -10.97600919   -1.49849321   -3.78540432      0.00000000    0.00000000    0.00000000
    1   -5.12518628   -3.77465048   -5.86188425     -4.81686177   -7.54442630  -14.92976820      0.00000000    0.00000000    0.00000000
    8   -6.20938948   -1.14576048    2.74950999    -20.66263281   -5.81517131   10.27110056      0.00000000    0.00000000    0.00000000
    1   -5.58533209   -1.28116989    1.97660664      2.62219195    0.56518763  -12.68852892      0.00000000    0.00000000    0.00000000
    1   -5.61897308   -0.51143629    3.29883652      6.90868198    7.22663037    3.27472030      0.00000000    0.00000000    0.00000000
    8    4.59573162   -3.66738145   -6.55362902     -7.01821424   14.45993118    9.35887366      0.00000000    0.00000000    0.00000000
    1    3.82803878   -3.99120215   -5.95381161     -0.70307155   -1.89381569    1.04733792      0.00000000    0.00000000    0.00000000
    1    5.12938294   -4.51726942   -6.81032928      2.23093965   12.48590687   -9.49849500      0.00000000    0.00000000    0.00000000
    8   -5.87622661   -3.69202104   -2.45046257     19.69948385    0.96981011   22.81340949      0.00000000    0.00000000    0.00000000