 BEGIN_INFO
   #
   # This is a XCRYSDEN-Structure-File
   # aimed for Visualization of Fermi Surface
   #
   # Case: Tight-binding calculation
   #
   # Launch as: xcrysden --xsf HICOLM.XSF
   #
 END_INFO
 # estrutura final
CRYSTAL
PRIMVEC
      19.00000000       0.00000000       0.00000000
       0.00000000      19.00000000       0.00000000
       0.00000000       0.00000000      19.00000000
PRIMCOORD
  300    1
    8    5.29583405   -6.77346792    0.93808543     35.60496782  117.52452343   49.42024590      0.00000000    0.00000000    0.00000000
    1    4.72316094   -5.96270904    0.81671249     -2.39044679    4.34734755    2.35469560      0.00000000    0.00000000    0.00000000
    1    5.30389085   -7.57233560    1.51827118     -4.91038049  -13.76363769    4.15648691      0.00000000    0.00000000    0.00000000
    8    5.52009003    1.14272686   -3.35255472   -868.50113799  394.45180183 1686.06288605      0.00000000    0.00000000    0.00000000
    1    5.78023816    0.40543447   -3.79682212     19.41172777  -66.74477363  -51.50779381      0.00000000    0.00000000    0.00000000
    1    5.84624008    2.15338687   -3.15946118     18.38747389   30.83506570  -23.91714485      0.00000000    0.00000000    0.00000000
    8    2.38523422    1.12828809   -7.63682400      4.15196613  -20.82198308  -28.87488868      0.00000000    0.00000000    0.00000000
    1    2.12230405    1.52207214   -8.51350250     -1.90283321    3.13692623    2.78926128      0.00000000    0.00000000    0.00000000
    1    3.19416474    0.65243619   -7.27610628      0.27414192    0.15868439    4.75173019      0.00000000    0.00000000    0.00000000
    8   -3.18956918    4.07192451    5.77927743    -49.63897868  -63.44754614  190.99949861      0.00000000    0.00000000    0.00000000
    1   -2.41718039    3.50618854    6.01511373      2.94138559    6.75417033    1.89609660      0.00000000    0.00000000    0.00000000
    1   -4.06143913    3.94215304    5.28124823      9.72074230    1.15327060    0.79085487      0.00000000    0.00000000    0.00000000
    8   -2.50076328   -8.01130112   -3.98941555      3.93544120   -5.58712152   -1.02592122      0.00000000    0.00000000    0.00000000
    1   -1.83237795   -7.48853676   -3.46297685      0.14041621    1.79894274    2.32199693      0.00000000    0.00000000    0.00000000
    1   -3.06305556   -7.84504153   -4.80343594     -2.29515043    2.85946031    1.13745186      0.00000000    0.00000000    0.00000000
    8    0.32135791   -3.60456127   -7.06479013   -124.72117313 -136.20636504  -37.26047133      0.00000000    0.00000000    0.00000000
    1    0.04844590   -4.20516619   -7.81463160      2.01973211    1.84880043   -0.53939699      0.00000000    0.00000000    0.00000000
    1    0.25388848   -2.64186090   -6.83969387      2.91802590    1.95613373  -13.37058173      0.00000000    0.00000000    0.00000000
    8    3.42419135   -1.48995641    7.31590858     29.00008659  -18.83265754   17.66397227      0.00000000    0.00000000    0.00000000
    1    2.95891017   -2.36568681    7.35274262      7.27797397    6.21563969   -6.16986050      0.00000000    0.00000000    0.00000000
    1    3.14965805   -0.54442635    7.44220739     -6.00220013    5.06100658   -0.91000697      0.00000000    0.00000000    0.00000000
    8   -6.43765264   -0.03344712    4.21784503      3.11288701   -1.18751512   -7.16762253      0.00000000    0.00000000    0.00000000
    1   -6.95381414    0.82249016    4.15595120     -1.05857000   -1.18646362    1.90735141      0.00000000    0.00000000    0.00000000
    1   -6.50543916   -0.87366237    4.74928728     -3.66796049    2.08365090    3.55573527      0.00000000    0.00000000    0.00000000
    8    0.66004992    5.10681656    2.41912022   -263.32008226-2341.16398236 1154.92862292      0.00000000    0.00000000    0.00000000
    1   -0.22070902    5.81782978    2.81828039    -28.60416439    0.27666664    0.25909225      0.00000000    0.00000000    0.00000000
    1    0.29814649    4.30596859    1.87726492     22.98680223   14.76123103   -7.81354159      0.00000000    0.00000000    0.00000000
    8   -3.53024179    5.65894792   -5.21681042     -0.13158088    5.34468086   -6.76858184      0.00000000    0.00000000    0.00000000
    1   -4.46558378    6.01003405   -5.20753677      0.12377323    0.79500673    0.58515688      0.00000000    0.00000000    0.00000000
    1   -2.62577060    6.03283838   -5.42718551     -4.56224490   -1.20039150    1.83132414      0.00000000    0.00000000    0.00000000
    8   -5.10785097    0.87873810    1.41037564     30.73738629  -30.84966131   14.67195712      0.00000000    0.00000000    0.00000000
    1   -5.82620866    0.18454141    1.42210261      0.75378705   -0.08478573    1.94777745      0.00000000    0.00000000    0.00000000
    1   -4.42954966    1.22484989    2.06439672      1.16287612   -6.70932677   -1.47908772      0.00000000    0.00000000    0.00000000
    8    0.36395716   -7.25857654   -7.36156200     -3.22409772   -8.15638344   -3.49818452      0.00000000    0.00000000    0.00000000
    1   -0.01639037   -6.33581574   -7.35859132      3.42157822   -0.16182840    4.93313192      0.00000000    0.00000000    0.00000000
    1   -0.01378726   -8.19093745   -7.35168087      3.85572994   -3.06835280    0.12101370      0.00000000    0.00000000    0.00000000
    8   -5.19149312    1.84225620    6.98995540   -522.93097995 1309.79190198  265.06975643      0.00000000    0.00000000    0.00000000
    1   -4.06073163    1.56960046    6.93054673     -3.12379602  -22.92652870   -3.71369643      0.00000000    0.00000000    0.00000000
    1   -5.79903979    2.20360300    6.56786815      2.51159347   -3.46357017    3.10676418      0.00000000    0.00000000    0.00000000
    8   -8.54331560   -4.22903942   -2.77746526      0.12812375    0.32296454    0.32932100      0.00000000    0.00000000    0.00000000
    1   -9.41969844   -4.70589409   -2.83335843     -1.29158730    1.10889495    1.46620516      0.00000000    0.00000000    0.00000000
    1   -7.63473069   -4.42811155   -2.40786659      0.61861943   -1.13452119   -0.54376130      0.00000000    0.00000000    0.00000000
    8   -3.82975829   -0.00709418   -5.97967120      2.37506712   -6.11172807    0.47503035      0.00000000    0.00000000    0.00000000
    1   -4.79751600    0.07247573   -5.75808536     -4.53637790    2.98979651    0.42828457      0.00000000    0.00000000    0.00000000
    1   -3.09695672    0.62970266   -6.23148499     -2.35967627    1.46750491   -0.75280773      0.00000000    0.00000000    0.00000000
    8   -8.41814957   -0.03535191   -8.53697083     -1.52787122    4.18280894    1.99261625      0.00000000    0.00000000    0.00000000
    1   -8.50766676    0.96077300   -8.55250675     -0.51182727    1.52909256   -1.34724762      0.00000000    0.00000000    0.00000000
    1   -8.97804352   -0.81381335   -8.81913731     -1.02646953   -0.27353859    0.02766723      0.00000000    0.00000000    0.00000000
    8    1.62222167   -6.53962001    6.37389767    908.34901425 1481.51236169 1544.67084520      0.00000000    0.00000000    0.00000000
    1    1.42261718   -6.07396429    6.65241018    -99.10199504   23.64961815  159.21988276      0.00000000    0.00000000    0.00000000
    1    2.83937793   -6.99306373    5.63236715     -1.44965844   18.88133084  -89.89429882      0.00000000    0.00000000    0.00000000
    8    8.01333529    4.10367644    3.13061601    -19.23469481   -8.22088466   -0.89902461      0.00000000    0.00000000    0.00000000
    1    8.54669423    3.26616618    3.06271900      4.76222561   -1.99254844   -2.59375046      0.00000000    0.00000000    0.00000000
    1    7.43654892    4.65571531    2.50532831     11.75324339    4.49738151   -6.29646620      0.00000000    0.00000000    0.00000000
    8   -3.05726943    4.94042256   -1.56444838      5.06581963   -1.27838526    7.93658794      0.00000000    0.00000000    0.00000000
    1   -2.75360827    5.66947538   -0.95348845     -4.98220086    0.94052096   -7.33849836      0.00000000    0.00000000    0.00000000
    1   -3.05078120    3.93711024   -1.54908926     -1.71943419   -0.77400483   -7.15093326      0.00000000    0.00000000    0.00000000
    8    0.96190714    0.28474532    5.80001057    125.01872800  961.97284173 -594.88322868      0.00000000    0.00000000    0.00000000
    1    1.61388822    0.39941040    4.97784235      3.95056386   -0.74580748    5.09627482      0.00000000    0.00000000    0.00000000
    1    0.11199675   -0.04327615    5.96635965     10.81644501   -3.43724503   -7.08305193      0.00000000    0.00000000    0.00000000
    8    3.39471457    6.42777895    1.58198513    438.34716206  537.19194572   29.34018707      0.00000000    0.00000000    0.00000000
    1    2.88190868    5.59238838    1.59688962    -16.36729098  -83.83520564  -41.08598554      0.00000000    0.00000000    0.00000000
    1    4.36611958    6.67329671    1.45601871     30.62814599    7.58994021  -16.80869096      0.00000000    0.00000000    0.00000000
    8   -7.98049225    3.07703842   -0.15206266  -1233.69598568  141.10533900 -857.48624300      0.00000000    0.00000000    0.00000000
    1   -7.95176249    2.36747702   -0.13228471      1.09535704   -5.58373235    2.60102065      0.00000000    0.00000000    0.00000000
    1   -8.49122269    4.13615021   -0.23184716     -0.73196317   -2.34294896    1.90775244      0.00000000    0.00000000    0.00000000
    8    1.76653978   -1.96086925   -6.60722626    114.49305614  132.64531348   36.76941014      0.00000000    0.00000000    0.00000000
    1    1.73573804   -1.51982178   -7.50952926      3.26135747   -0.00822050   -1.07443949      0.00000000    0.00000000    0.00000000
    1    1.07499644   -2.26674846   -5.93346973     11.89249927   -3.38091830   13.18215853      0.00000000    0.00000000    0.00000000
    8    0.36218463   -7.66427422    2.29204793     -7.60100706   -2.08311424  -31.68613056      0.00000000    0.00000000    0.00000000
    1   -0.05869733   -8.55895428    2.47203341      5.96178110    1.36641841    9.91049728      0.00000000    0.00000000    0.00000000
    1    0.02453995   -6.72344989    2.22832406      0.75478231   -5.47229040    6.03479505      0.00000000    0.00000000    0.00000000
    8   -2.27306386   -8.84755316   -9.41586695     -0.04495389    2.08625864    1.83425564      0.00000000    0.00000000    0.00000000
    1   -3.09331015   -8.68214954    9.24865557      1.18764382   -2.09009269   -0.84662934      0.00000000    0.00000000    0.00000000
    1   -1.60109158   -8.28029610   -8.93249683      0.85952463   -0.73163224   -5.14567212      0.00000000    0.00000000    0.00000000
    8   -7.78178598    7.96596803    1.98578221     -4.83871042    0.46461956   -0.67585164      0.00000000    0.00000000    0.00000000
    1   -8.48626905    7.33701187    1.66983471     -0.05511372    0.11181437    2.13718731      0.00000000    0.00000000    0.00000000
    1   -6.81003162    7.90217766    2.22275214     -0.35353527   -1.28892480    0.87750437      0.00000000    0.00000000    0.00000000
    8   -6.40934616    2.92659353    0.92112533   1248.29189924  -74.33594911  862.09817228      0.00000000    0.00000000    0.00000000
    1   -5.87689697    2.70818288    1.72555390     -0.89517851   -7.24907668   -7.35112918      0.00000000    0.00000000    0.00000000
    1   -6.81941015    3.34789977    0.30008286    -34.26405803   -9.61735596  -16.75996582      0.00000000    0.00000000    0.00000000
    8   -6.83961082    4.32581042    5.13145238      7.31477248   -3.93303419   -4.39313612      0.00000000    0.00000000    0.00000000
    1   -7.50122079    3.57792923    5.08826738     -1.60449038    3.90891570    2.83450409      0.00000000    0.00000000    0.00000000
    1   -5.84718292    4.41044664    5.21565576     -2.31232301    6.00357885    5.51982522      0.00000000    0.00000000    0.00000000
    8    3.29221517   -6.86671308   -6.07001073    -40.82404341  -12.58110209  -92.53605082      0.00000000    0.00000000    0.00000000
    1    3.81281253   -6.06982208   -5.78839093     -8.47061390   -4.39682461    2.57595129      0.00000000    0.00000000    0.00000000
    1    2.47672465   -7.34224850   -5.74669547     -2.31735734    1.37008525   -4.58927863      0.00000000    0.00000000    0.00000000
    8    4.94855252    3.05448237    3.59940496    127.11554752 -205.43459108 -437.81038021      0.00000000    0.00000000    0.00000000
    1    3.99316108    3.31091308    3.61112861      0.10266890    4.69557181   12.20974742      0.00000000    0.00000000    0.00000000
    1    5.85602067    3.49486794    3.58378064     -7.91564788  -22.38572195   10.88561310      0.00000000    0.00000000    0.00000000
    8    2.88816543   -3.58796728    2.74811060   -473.62837042-1768.62892347   10.39113306      0.00000000    0.00000000    0.00000000
    1    3.65379349   -3.95729691    3.19162777     -0.40031105    6.32760732   -1.72919296      0.00000000    0.00000000    0.00000000
    1    1.86045207   -3.84877928    2.73671317      4.29084428    2.56136909    0.57320701      0.00000000    0.00000000    0.00000000
    8    7.45792972    7.92843012    5.91621738     30.02092255   -8.73729014   24.88275320      0.00000000    0.00000000    0.00000000
    1    7.32080826    8.89792593    6.00259932      3.17759922   -1.36130159   12.66911238      0.00000000    0.00000000    0.00000000
    1    8.26061324    7.32508003    5.90790457      0.36542775   -4.41438536    0.94877651      0.00000000    0.00000000    0.00000000
    8    5.46957125    2.79767696    1.23109436    876.20493432   14.01676365 1233.62221680      0.00000000    0.00000000    0.00000000
    1    4.55140500    2.47158668    0.98877054     -5.11823891   34.67440069  -24.73399608      0.00000000    0.00000000    0.00000000
    1    5.65066327    3.61686541    1.89570961    -19.93383609  -23.12547238   -9.98580696      0.00000000    0.00000000    0.00000000
    8   -4.50702813    0.08231900    6.64839386    537.17592797-1309.72881160 -258.59179290      0.00000000    0.00000000    0.00000000
    1   -4.25058017   -0.74704682    6.12245775     -3.37949627    3.14910058   -0.63066243      0.00000000    0.00000000    0.00000000
    1   -5.26502802    0.24658720    7.31634578     -7.23815036   21.45005536   -0.15158334      0.00000000    0.00000000    0.00000000
    8    4.49128154    3.83873530    5.45927679    628.19704362 -784.10092498   19.67917683      0.00000000    0.00000000    0.00000000
    1    5.31822401    3.85375106    5.87558846     16.01145195    1.69131414   -3.26193032      0.00000000    0.00000000    0.00000000
    1    3.76668402    3.00588656    5.91422264     56.16386214  -41.06188530   43.52031896      0.00000000    0.00000000    0.00000000
    8    2.48519843    5.61433658   -6.74197772    978.31389576 -984.07966095 -721.79441543      0.00000000    0.00000000    0.00000000
    1    2.46419949    5.48102738   -5.64795607     11.04921878   -0.45079527   56.77912740      0.00000000    0.00000000    0.00000000
    1    2.18634293    5.68183074   -7.45909834      3.72555703    1.21623155   -2.52673323      0.00000000    0.00000000    0.00000000
    8   -2.07113487    6.03258174    8.23583366      4.48220341   -3.72624998    9.22126783      0.00000000    0.00000000    0.00000000
    1   -2.92898704    5.51066057    8.31489803     -3.52185320   -1.23092993   -3.27849638      0.00000000    0.00000000    0.00000000
    1   -1.09997645    5.80165909    8.20066962     -4.03878003   -0.04494852   -1.20582084      0.00000000    0.00000000    0.00000000
    8    6.49922241    1.29161842    5.98356902  -1207.71743671  846.92087013   33.16335646      0.00000000    0.00000000    0.00000000
    1    7.41429327    1.85658301    4.50341857      0.87336552  -11.36001525    8.85414185      0.00000000    0.00000000    0.00000000
    1    6.99825229    0.73872430    5.83697884     59.99765032    6.98011496  -18.25082312      0.00000000    0.00000000    0.00000000
    8    5.91018287    1.08040497    8.18465200    -43.29559824  448.21119571-1556.61380803      0.00000000    0.00000000    0.00000000
    1    6.08928156    1.97378412    8.62107111     24.36100980  -15.51453517   -7.75804277      0.00000000    0.00000000    0.00000000
    1    6.05251107    0.08770173    8.41480389      0.62339270    8.84923686   26.98223296      0.00000000    0.00000000    0.00000000
    8    0.92642799   -1.35793262    6.84708122    -71.18644504 -995.61225087  630.90646877      0.00000000    0.00000000    0.00000000
    1    1.35782635   -1.91936073    7.48915535     -0.11150695   10.61269460   -0.19487711      0.00000000    0.00000000    0.00000000
    1    0.07028439   -1.45734021    6.25295494      7.03350741   -4.92967326    2.30502991      0.00000000    0.00000000    0.00000000
    8    9.49641675   -6.90820365   -6.66009575     -3.23288535   -2.52957548   -1.64631300      0.00000000    0.00000000    0.00000000
    1   -8.49147763   -7.12302074   -6.77097243      0.42901678    2.15110066    0.28089326      0.00000000    0.00000000    0.00000000
    1    8.76536831   -6.65048943   -7.27718641     -0.99303277    0.36196419   -0.67150355      0.00000000    0.00000000    0.00000000
    8   -8.41968054   -8.36932119    7.32115522     -1.72991300    3.38372649    1.63468795      0.00000000    0.00000000    0.00000000
    1   -8.18548831   -9.31355667    7.57182351      0.35144795   -2.50971298   -1.43609801      0.00000000    0.00000000    0.00000000
    1   -8.04000781   -7.67128927    6.71464430      1.14074193   -1.78707629    1.37040066      0.00000000    0.00000000    0.00000000
    8   -4.70115666   -5.81619626    5.81253052      8.20011238   -0.88974058   -2.84388075      0.00000000    0.00000000    0.00000000
    1   -4.80759439   -6.79408375    5.64485427      0.49049808   -4.33036161    1.25256960      0.00000000    0.00000000    0.00000000
    1   -5.29404898   -5.00843470    5.78365181      0.94979793   -1.80181234    2.09426000      0.00000000    0.00000000    0.00000000
    8    2.28898109    2.76998867    5.48737424    -31.02273414  -66.43504318  -19.85287401      0.00000000    0.00000000    0.00000000
    1    1.40644321    2.99497829    5.92443789     -8.03675609    9.68263933    6.52284956      0.00000000    0.00000000    0.00000000
    1    3.13748987    3.14653177    5.52678605    -56.35475216   30.99974385  -49.66818259      0.00000000    0.00000000    0.00000000
    8    2.32281125    0.37076566    0.40380573  -1277.11272566  147.12059869  391.87543938      0.00000000    0.00000000    0.00000000
    1    2.67640691    1.23708280   -0.01684757      7.81733344   -0.53687187   -0.95392162      0.00000000    0.00000000    0.00000000
    1    1.48317544    0.11586255    0.85991597     -5.01396392    4.08508803    6.07492997      0.00000000    0.00000000    0.00000000
    8    1.65594976   -6.81139143   -0.37759301      4.77600116   16.28755793   -6.01685922      0.00000000    0.00000000    0.00000000
    1    1.31553831   -7.74645373   -0.27873902     -3.95432647   -0.65984419    1.86408619      0.00000000    0.00000000    0.00000000
    1    1.75485214   -6.16273156   -1.13551088     -1.11723355   -4.83135129    0.02168671      0.00000000    0.00000000    0.00000000
    8    1.98730443    2.98692652   -5.80050328    525.17032823  164.34502099-1320.95421130      0.00000000    0.00000000    0.00000000
    1    2.12043993    2.53238111   -4.87410975    -20.37943875   19.49686769   38.23745588      0.00000000    0.00000000    0.00000000
    1    1.39322049    3.57329119   -6.25309032     10.50219675    7.75781447    3.69054661      0.00000000    0.00000000    0.00000000
    8    5.94769815    5.30106010    4.76224673    195.74168196  186.43807107  -91.28135772      0.00000000    0.00000000    0.00000000
    1    6.01338896    6.27312662    4.90198711      1.00995863    3.87484319   10.15128728      0.00000000    0.00000000    0.00000000
    1    6.01003540    4.64914260    4.00277210     -5.90061890   17.06018034   20.10723549      0.00000000    0.00000000    0.00000000
    8    6.02933531    2.92325487   -0.78035672    487.38339485  113.39975132 -579.74164354      0.00000000    0.00000000    0.00000000
    1    5.05343447    2.84495943   -0.79779448    -23.82453126  -14.48029442   16.34025218      0.00000000    0.00000000    0.00000000
    1    6.79300166    2.38234972   -1.18516606     -6.56331477    2.79347818   -0.82498599      0.00000000    0.00000000    0.00000000
    8   -3.86832369   -3.31392161   -5.45474742      3.02928437   -7.65215604    0.49803071      0.00000000    0.00000000    0.00000000
    1   -4.29168835   -2.63919166   -6.06436204     -0.29879436    7.55796848    4.21515602      0.00000000    0.00000000    0.00000000
    1   -3.86362923   -3.49834308   -4.47348370      0.18703069    2.42052838    2.02338227      0.00000000    0.00000000    0.00000000
    8    3.67091782   -8.48284221    0.80966959    -54.95375080  -53.61133118   -3.01660704      0.00000000    0.00000000    0.00000000
    1    3.70602292   -7.50989944    0.58662637      0.54873221    4.92447639   -0.62806378      0.00000000    0.00000000    0.00000000
    1    2.94404139   -9.14938962    1.02175319     -6.28820561    0.74190255    6.21416139      0.00000000    0.00000000    0.00000000
    8    4.13695076    0.23491314   -0.23770456   1366.76706692 1437.85435690-1626.18920962      0.00000000    0.00000000    0.00000000
    1    4.61005731    0.66377826    0.33628924     18.57470231  -44.35115412  -22.03620919      0.00000000    0.00000000    0.00000000
    1    3.50921799    0.30805868   -1.09232362      1.02093516  -13.50518583   -1.66031406      0.00000000    0.00000000    0.00000000
    8    3.37035279    7.36565575   -4.98214056    330.90611055  699.73888765 -125.51115430      0.00000000    0.00000000    0.00000000
    1    3.17033849    8.34718509   -5.12240403      2.85122186    7.94531187    0.27276213      0.00000000    0.00000000    0.00000000
    1    4.14505969    6.81244780   -4.85721616      6.70751722   12.99453741  -16.38727893      0.00000000    0.00000000    0.00000000
    8    7.43559628    7.97373577   -1.77355739      3.86052873   -1.32503613    6.94055978      0.00000000    0.00000000    0.00000000
    1    7.55205465    8.81084611   -1.22423937     -1.09320673    6.75181101   -1.60771603      0.00000000    0.00000000    0.00000000
    1    8.03112126    7.34287583   -2.24777002     -0.35081419    2.35490565   -4.90657989      0.00000000    0.00000000    0.00000000
    8   -3.09273606   -2.62429424    0.64049359    -25.81735033   11.79214644    8.95506260      0.00000000    0.00000000    0.00000000
    1   -2.23420779   -3.03218160    0.97290108      7.27040427   -1.01042375   -8.81072888      0.00000000    0.00000000    0.00000000
    1   -4.05816402   -2.67774740    0.89769786      1.12458334   -2.80665704    0.98875389      0.00000000    0.00000000    0.00000000
    8   -1.18049227    0.89501566    5.26489743   -121.94252306   23.91824173  -35.55745614      0.00000000    0.00000000    0.00000000
    1   -0.55379331    1.07264558    6.01109363     13.23404741   14.96406763    2.41224653      0.00000000    0.00000000    0.00000000
    1   -1.68561005    1.46735696    4.61443652     -1.76260399    3.49487602   -0.57523850      0.00000000    0.00000000    0.00000000
    8   -1.18768094    4.91043671    1.82913484  -1046.64835432 -117.11367759 -365.63288700      0.00000000    0.00000000    0.00000000
    1   -1.57991318    5.19138029    0.75432613     -0.26138232    1.30722726   -1.22995261      0.00000000    0.00000000    0.00000000
    1   -0.68178091    4.19569649    2.05862270    -21.10479402   -1.09228842    6.31244634      0.00000000    0.00000000    0.00000000
    8    6.14274273    2.74474063   -4.22210755    437.77542719 1128.97725791 -573.02356719      0.00000000    0.00000000    0.00000000
    1    5.73487215    1.73898012   -4.40000234    -15.00352178  -32.52891616   25.51771415      0.00000000    0.00000000    0.00000000
    1    5.64611577    3.61821592   -4.32807512     -1.30043210    2.69504917   -3.18996036      0.00000000    0.00000000    0.00000000
    8    4.01083162   -1.28319927    0.84728821  -1613.95871445-2284.37933534 -164.70053713      0.00000000    0.00000000    0.00000000
    1    3.32740310   -1.92893652    1.43155548   -114.53874509   39.78649110  -16.14851452      0.00000000    0.00000000    0.00000000
    1    4.12926824   -0.21605482    1.32547200     14.01128194  -25.23978106   -4.28116211      0.00000000    0.00000000    0.00000000
    8    6.12789399    3.32562652   -8.76423456    -18.80233149   -7.53749676  -13.54316063      0.00000000    0.00000000    0.00000000
    1    5.39881219    2.65233766   -8.78201424     22.19954063   23.77819296   28.78900019      0.00000000    0.00000000    0.00000000
    1    6.37204331    4.24625889   -8.57199830      3.46101254    2.84471704    5.62712365      0.00000000    0.00000000    0.00000000
    8    1.19533610    6.88238243   -6.11975271  -1088.72221146 1004.10701550  456.33806529      0.00000000    0.00000000    0.00000000
    1    1.91398843    7.17398154   -6.19921915     20.51387843  -11.75618731   -1.24967752      0.00000000    0.00000000    0.00000000
    1    0.08466502    6.99425543   -6.17351926      4.39595101    3.13290759   -1.92511220      0.00000000    0.00000000    0.00000000
    8    9.28885720    3.28695389   -2.97069311      1.76323907    4.84050817    3.99381525      0.00000000    0.00000000    0.00000000
    1    9.15040052    2.39360328   -2.56546954      0.29601203   -1.57583646   -6.34403981      0.00000000    0.00000000    0.00000000
    1    9.47285130    4.21548739   -2.63680818     -1.07493309   -3.88376057   -3.17514478      0.00000000    0.00000000    0.00000000
    8    1.00008634    0.36105405    2.46729972    216.07001114 -108.15603695  339.56842434      0.00000000    0.00000000    0.00000000
    1    0.08050550   -0.01514140    2.47786054     -2.32401284  -27.28215719   56.12839645      0.00000000    0.00000000    0.00000000
    1    1.92000767   -0.00885501    2.56348674      3.11233680    2.11939369   -0.86736534      0.00000000    0.00000000    0.00000000
    8    8.29390883   -4.32806593    3.54784644   -434.60284065  611.03436028-1233.45922261      0.00000000    0.00000000    0.00000000
    1    8.65061943   -5.29380525    3.01957994     -5.18764435   -2.40585298    7.64922133      0.00000000    0.00000000    0.00000000
    1    7.31602302   -4.06982692    3.44018106      0.72877750   -1.91324423    2.72742921      0.00000000    0.00000000    0.00000000
    8   -9.45616022    6.93852343   -6.58199492     -4.10704272    0.78961340   -2.66981904      0.00000000    0.00000000    0.00000000
    1    9.34948803    7.00029480   -7.62732413     -1.11136227   -2.48386816    1.76670652      0.00000000    0.00000000    0.00000000
    1   -8.69754920    6.67182054   -5.98625603     -0.28628558   -2.31437980   -0.81645744      0.00000000    0.00000000    0.00000000
    8    2.60357010    5.55761865   -4.54549976   -248.97269403 -732.32016667  380.91353732      0.00000000    0.00000000    0.00000000
    1    3.51497097    5.91668152   -4.23843171    -15.73528935    6.44407833    3.97896972      0.00000000    0.00000000    0.00000000
    1    1.70833978    5.94353363   -4.62999409     -7.60434889   18.30692136   -3.60582557      0.00000000    0.00000000    0.00000000
    8    6.03962451   -7.95727635   -0.98951357     36.02963430  -43.73164407  -76.53385201      0.00000000    0.00000000    0.00000000
    1    6.02715903   -7.03687341   -0.64737265     -7.81383251    2.80203570   13.07619018      0.00000000    0.00000000    0.00000000
    1    5.57191256   -8.81897700   -0.74576560     -5.10439386    6.06101443    3.92015937      0.00000000    0.00000000    0.00000000
    8   -2.79323920    4.64291138    3.66113868    -10.28096075   34.60834697 -142.70950180      0.00000000    0.00000000    0.00000000
    1   -1.85401667    4.72959550    3.34994491      0.19208176   10.64623804  -12.50538263      0.00000000    0.00000000    0.00000000
    1   -3.64486571    4.30825893    3.26363866      7.57526879    3.76329414   -2.09222064      0.00000000    0.00000000    0.00000000
    8    0.62120535   -7.32956400    5.00985055  -1127.87719580 -870.54831549-1499.63253132      0.00000000    0.00000000    0.00000000
    1   -0.65420651   -6.08248803    5.58174692      6.34517932   -8.81804142   -0.70985167      0.00000000    0.00000000    0.00000000
    1    1.68737146   -6.17036861    6.20453620    -15.82384142 -639.02323217  108.18380532      0.00000000    0.00000000    0.00000000
    8    4.39713698   -6.62147813   -4.01216999     40.23859513   16.29628079   83.92597861      0.00000000    0.00000000    0.00000000
    1    5.03193394   -6.33586991   -4.72515569      4.38664714   -5.57092345    5.50773149      0.00000000    0.00000000    0.00000000
    1    3.65947661   -6.18978610   -3.49489939      2.22398376   -6.43375920   -0.50287551      0.00000000    0.00000000    0.00000000
    8    5.60858760   -0.63120926    1.56648524    533.70432534  792.52958818 1890.88048030      0.00000000    0.00000000    0.00000000
    1    5.95235263    0.70138728    1.50048320     12.30819191    3.87359467   -2.78196477      0.00000000    0.00000000    0.00000000
    1    5.88715810   -0.92328915    0.64238640     31.61735543   12.77562968  -16.55960162      0.00000000    0.00000000    0.00000000
    8    0.86616990   -0.03019256   -2.18947872     -3.56906260    8.77012658    8.45908892      0.00000000    0.00000000    0.00000000
    1    1.31783402    0.76784405   -1.79509240      4.11841688   -3.93643554   -3.03259140      0.00000000    0.00000000    0.00000000
    1   -0.03927509   -0.23162101   -2.56395957      0.78559918   -0.69322324   -1.72987954      0.00000000    0.00000000    0.00000000
    8   -1.47028068    7.83307919    2.85954198      2.38198429   -2.36254492   -4.00212062      0.00000000    0.00000000    0.00000000