 BEGIN_INFO
   #
   # This is a XCRYSDEN-Structure-File
   # aimed for Visualization of Fermi Surface
   #
   # Case: Tight-binding calculation
   #
   # Launch as: xcrysden --xsf HICOLM.XSF
   #
 END_INFO
 # estrutura final
CRYSTAL
PRIMVEC
      14.43164368       0.00000000       0.00000000
       0.00000000      14.43164368       0.00000000
       0.00000000       0.00000000      14.43164368
PRIMCOORD
  300    1
    8    2.40030719    2.43596733    0.92333411    -25.20415244   -8.46179739   -3.03291129      0.00000000    0.00000000    0.00000000
    1    3.22652791    1.88049416    0.89061297     13.62393698    5.09994710    3.13535568      0.00000000    0.00000000    0.00000000
    1    2.27820490    2.61558624    1.94302565     14.88152002    7.94518748    2.34829796      0.00000000    0.00000000    0.00000000
    8    2.65964603   -4.59336249   -1.82089191     64.49505145    5.04906769   39.09354254      0.00000000    0.00000000    0.00000000
    1    2.75429217   -5.57213599   -2.20737748      3.67040379   -8.69420821   -6.13557156      0.00000000    0.00000000    0.00000000
    1    3.57444774   -4.16855331   -2.13053297      5.96522758    6.65373833    3.06719467      0.00000000    0.00000000    0.00000000
    8    5.08575933   -6.27032756   -5.65622409     31.67483414   -8.05518134   22.18555104      0.00000000    0.00000000    0.00000000
    1    4.09069613   -5.97876638   -5.44531753    -11.35017887   -0.10033985   -3.54461450      0.00000000    0.00000000    0.00000000
    1    5.18378751   -5.81269435   -6.59440873     -3.94204141   -6.59197582  -12.20678666      0.00000000    0.00000000    0.00000000
    8    5.27076315   -0.64238830    5.11225099     -4.29136006   19.68285150    9.53466799      0.00000000    0.00000000    0.00000000
    1    5.91787473   -1.35213962    5.38040368      4.47637627  -13.62376520   -0.49752837      0.00000000    0.00000000    0.00000000
    1    4.68985768   -0.87889542    4.32683278     -5.58647229   -5.05211515   -5.95558635      0.00000000    0.00000000    0.00000000
    8    0.64963501    2.90935391   -4.82322388     10.47622049   -3.64543545   24.86021239      0.00000000    0.00000000    0.00000000
    1    0.77123616    3.25896605   -5.78649672     -5.39575924   -2.53823324  -14.23061489      0.00000000    0.00000000    0.00000000
    1    0.71024183    1.92026374   -4.98774771     -6.02185173   -3.21929873  -14.78326189      0.00000000    0.00000000    0.00000000
    8    1.88791410    2.57190641   -1.86514426    -10.38660729   19.96122379  -10.55285270      0.00000000    0.00000000    0.00000000
    1    1.82505723    1.78438449   -1.18728475      6.56500131   -4.27475084    7.18067789      0.00000000    0.00000000    0.00000000
    1    1.38675936    2.21567179   -2.71997483     12.45483422   -2.77437394   -3.84525742      0.00000000    0.00000000    0.00000000
    8    5.13273847    2.07962776    0.03116472     -2.13390625  -22.71389281    6.23985898      0.00000000    0.00000000    0.00000000
    1    4.86703576    1.88578140   -0.98285644     -9.04765265    0.44066913  -12.20721469      0.00000000    0.00000000    0.00000000
    1    5.50186578    3.05920723   -0.03462456    -13.14700973    4.09205081   -1.97465467      0.00000000    0.00000000    0.00000000
    8   -0.33316915    4.21990436   -0.58526290     -6.14900960   24.74972520    2.65059408      0.00000000    0.00000000    0.00000000
    1    0.44957523    3.71444764   -1.00560386     11.19219359   -9.70754475   -1.76655608      0.00000000    0.00000000    0.00000000
    1   -0.65098538    3.45881355   -0.00326934      2.42202332  -12.35762440    5.99476479      0.00000000    0.00000000    0.00000000
    8    0.39941197   -4.69121450   -2.58194350    -86.53789250  -10.42980709  -54.26065416      0.00000000    0.00000000    0.00000000
    1    0.33303179   -5.30388059   -1.75051048      7.76537594   -5.83119401    5.57505955      0.00000000    0.00000000    0.00000000
    1    0.34265828   -3.67066155   -2.27454402      0.53514873   15.20631987   12.86229225      0.00000000    0.00000000    0.00000000
    8   -4.06678392    2.87247057   -0.05402398      5.31926568  -24.56740187   24.99742782      0.00000000    0.00000000    0.00000000
    1   -4.60874323    2.02713496    0.03828449     -6.29542765   -7.23649978   -3.10272822      0.00000000    0.00000000    0.00000000
    1   -4.89277606    3.42291810   -0.33790917     -4.96684962    6.64822171   -5.72418699      0.00000000    0.00000000    0.00000000
    8   -1.41088354    2.17789107    1.40940249     20.22828573  -16.06178410  -34.45489935      0.00000000    0.00000000    0.00000000
    1   -2.44387147    1.98715536    1.17184695     -6.05211741   -2.95056760   -3.99309223      0.00000000    0.00000000    0.00000000
    1   -1.20309044    1.18685930    1.29246353     -0.03397502   -7.83151221   -4.17158138      0.00000000    0.00000000    0.00000000
    8    3.30814293    6.45608935   -0.10220532     -6.43241603   13.62998599   16.29048882      0.00000000    0.00000000    0.00000000
    1    3.22184252    6.27432128   -1.11018130     -0.63759443   -2.31748019  -11.68993965      0.00000000    0.00000000    0.00000000
    1    4.10092783    5.84039275    0.09713340    -17.24830263   -9.66741165    4.07024135      0.00000000    0.00000000    0.00000000
    8   -1.58842204   -3.73696643    4.17759717    -20.10702132    6.80150612   13.64211475      0.00000000    0.00000000    0.00000000
    1   -1.92328289   -4.37344373    3.45411488     -0.58174527  -13.37800478  -10.38205352      0.00000000    0.00000000    0.00000000
    1   -0.98276192   -3.18508652    3.60189423      4.76738597    2.49763756  -12.13201548      0.00000000    0.00000000    0.00000000
    8    3.51440834    7.02710230    7.05651364    -28.06991104   -5.18827341  -27.24852144      0.00000000    0.00000000    0.00000000
    1    3.28224222    6.47295225   -6.54902425     15.05311981   -5.06938782   -2.77560417      0.00000000    0.00000000    0.00000000
    1    4.52112358    7.03153728    7.19107234      5.20210577   -5.03193768    1.80911688      0.00000000    0.00000000    0.00000000
    8   -7.12045802    2.94589193    1.40695709     21.13019915   -4.08433581   24.05066293      0.00000000    0.00000000    0.00000000
    1   -6.59452551    2.39845527    0.72896850     -5.26556366   -9.02850819   -6.79782080      0.00000000    0.00000000    0.00000000
    1    6.70288254    3.55201853    0.83553275     -4.54693595    9.88286489    8.75429723      0.00000000    0.00000000    0.00000000
    8   -3.02397214    4.63918311   -1.67731522     -5.35062893    5.84155448  -40.29571923      0.00000000    0.00000000    0.00000000
    1   -2.49512061    3.75990466   -1.73385169     13.93922089   -1.56368232   11.37006520      0.00000000    0.00000000    0.00000000
    1   -2.71391116    5.08773906   -0.79274298      3.49882166    2.70841754    8.12670003      0.00000000    0.00000000    0.00000000
    8   -0.03896087   -2.21912653    5.79983095     -9.52118829   15.91251627   17.69632988      0.00000000    0.00000000    0.00000000
    1    0.45204735   -2.85454924    5.22481332      2.60007269   -1.27264932   -0.38335070      0.00000000    0.00000000    0.00000000
    1   -0.67339250   -1.89824377    5.07823775      3.70233190   -0.17332630   -3.84662267      0.00000000    0.00000000    0.00000000
    8   -6.02196976    6.52470139    2.83449571    -27.94075945   -1.14209366   20.74517773      0.00000000    0.00000000    0.00000000
    1   -6.04456238   -7.19807489    2.09056081      7.35320073    7.31497813  -13.62520208      0.00000000    0.00000000    0.00000000
    1   -4.99838879    6.53744189    2.96379752      7.77562017   -1.54653018    0.06436239      0.00000000    0.00000000    0.00000000
    8   -2.97651500   -1.81811293    0.82305060     36.89277403   12.50982927   10.68552913      0.00000000    0.00000000    0.00000000
    1   -3.78702216   -2.32139301    1.25803710     -8.92940354   -1.97253245   -9.09151649      0.00000000    0.00000000    0.00000000
    1   -2.77046082   -2.49284307    0.08372658     -7.61779419   -5.44409437   -5.95882493      0.00000000    0.00000000    0.00000000
    8   -2.40838343    1.17134825   -5.18277757     14.31832747   11.90868619   -6.72915751      0.00000000    0.00000000    0.00000000
    1   -3.14849779    1.13163831   -5.83573591     -5.13219737  -12.90295296    2.04320753      0.00000000    0.00000000    0.00000000
    1   -2.50270954    0.28692170   -4.64415640     -6.36954593  -10.11315765   -2.03247979      0.00000000    0.00000000    0.00000000
    8   -1.33611014    0.77841204    5.48817685    -10.06632781  -15.10582094    2.54737748      0.00000000    0.00000000    0.00000000
    1   -0.79043253    1.03615987    4.64687657      8.32688744    6.97353296  -10.11687147      0.00000000    0.00000000    0.00000000
    1   -1.60424627    1.70900612    5.78262611      0.06443896    6.32458324   -2.74858795      0.00000000    0.00000000    0.00000000
    8   -4.70181864    5.41386255    0.72267997      8.12448002    4.82423709    8.09282578      0.00000000    0.00000000    0.00000000
    1   -5.41496253    5.50441156    0.00002249      1.52629712    2.40690116   -6.79633242      0.00000000    0.00000000    0.00000000
    1   -4.90582291    4.55747337    1.22162453     -6.06375997   -3.72496643    5.73666713      0.00000000    0.00000000    0.00000000
    8    3.41709290    2.77321355    4.38649506    -27.34948903   19.74604511    9.76067612      0.00000000    0.00000000    0.00000000
    1    3.14246092    1.85050165    4.79732419      9.30641756  -16.03880820    5.21494451      0.00000000    0.00000000    0.00000000
    1    4.40644711    2.66153044    4.51101108     11.31040006  -11.10953422   -2.77075700      0.00000000    0.00000000    0.00000000
    8   -2.33373744    4.13074150    2.59575360    -15.67721775   67.52757831   41.20991865      0.00000000    0.00000000    0.00000000
    1   -1.70798692    4.30992055    1.76187678      4.04473446  -16.10587938   -6.38626215      0.00000000    0.00000000    0.00000000
    1   -3.13067830    3.58063174    2.18635176     -4.53002053   -7.98706015    0.70975242      0.00000000    0.00000000    0.00000000
    8   -5.04470664   -4.24840244    3.44040408    -27.21758997   13.14694259   25.23274353      0.00000000    0.00000000    0.00000000
    1   -4.07914576   -3.92538815    3.32897334      4.40127536   -8.66294398   -7.02884958      0.00000000    0.00000000    0.00000000
    1   -5.24397077   -4.36544984    2.45761031      4.31529415   -7.43444864  -11.58264500      0.00000000    0.00000000    0.00000000
    8   -5.05060363    4.60339190   -4.27198553     17.39187969   -0.89801613   -2.63493467      0.00000000    0.00000000    0.00000000
    1   -4.79642578    4.46605766   -3.27387226      1.55341708    4.22354407    7.37241184      0.00000000    0.00000000    0.00000000
    1   -6.06643666    4.82795527   -4.15673765     -5.36829454    0.34211194   -6.73801297      0.00000000    0.00000000    0.00000000
    8    1.59008097   -5.53429069    5.58865728      3.64665615   27.31942309   -0.26163066      0.00000000    0.00000000    0.00000000
    1    2.25192851   -6.33338775    5.56283247      1.50574628   -9.24558803    3.59390203      0.00000000    0.00000000    0.00000000
    1    0.68155068   -5.94348223    5.57822226     -0.21037210  -13.47622807   -1.28676742      0.00000000    0.00000000    0.00000000
    8   -3.04822564   -5.71522789    2.34642145      9.36256181   38.58915591    7.28286867      0.00000000    0.00000000    0.00000000
    1   -3.51038535   -6.64005947    2.50036283      4.69669661   -6.43251400   -0.35610817      0.00000000    0.00000000    0.00000000
    1   -2.36086418   -5.95869588    1.62966245     -2.41883055  -18.83034138   -4.44561426      0.00000000    0.00000000    0.00000000
    8   -2.16078975    6.51880954    1.07040190     17.45339346   20.15689922  -18.07513839      0.00000000    0.00000000    0.00000000
    1   -1.29572740    6.32033269    1.64051446     11.65212710   -3.83071818    9.58369442      0.00000000    0.00000000    0.00000000
    1   -2.83867374    5.84196545    1.48130026    -11.56116837   -9.18335076    1.63076457      0.00000000    0.00000000    0.00000000
    8   -5.95336013   -5.78629627    0.53105344      9.22219257   -6.27425427   28.97376932      0.00000000    0.00000000    0.00000000
    1   -6.33736524   -5.04315860   -0.06510977    -10.12226582    2.76709612  -10.10284169      0.00000000    0.00000000    0.00000000
    1   -5.78998850   -6.49337334   -0.16432625      3.80901952   -1.64879430  -11.31297772      0.00000000    0.00000000    0.00000000
    8    6.83109638   -3.00097877    4.56524936    -20.90941789  -10.28415034   12.86759498      0.00000000    0.00000000    0.00000000
    1    6.91867142   -2.25328708    3.87513554     15.26671257    8.32397903  -12.37362279      0.00000000    0.00000000    0.00000000
    1   -6.64715391   -3.36096710    4.34150212     16.13458766    1.54907826   -9.94459460      0.00000000    0.00000000    0.00000000
    8   -6.01641217   -6.83230614    5.33453790    -17.48807747   22.52869807   33.40495624      0.00000000    0.00000000    0.00000000
    1   -5.90751948   -6.23422726    4.45714762      7.75949024   -2.53766228   -9.93232926      0.00000000    0.00000000    0.00000000
    1   -6.12990094    6.62426095    4.97598909      8.22382763   -4.46805882  -11.50054618      0.00000000    0.00000000    0.00000000
    8   -6.91986308    1.95740098   -3.52701956     -1.46897882  -35.64715177   10.82618641      0.00000000    0.00000000    0.00000000
    1    7.14199701    2.77057555   -3.07924209      1.43878646   11.34385985   -4.42796386      0.00000000    0.00000000    0.00000000
    1   -6.00996905    1.97150003   -3.06166155     14.03890901    5.60300380   -9.77661217      0.00000000    0.00000000    0.00000000
    8    1.78381758   -2.87187400    0.73334267    -31.23246727   34.35377189   -0.01381570      0.00000000    0.00000000    0.00000000
    1    2.03300595   -3.82164037    0.30676667     10.97974145   -7.04233127   -0.84158830      0.00000000    0.00000000    0.00000000
    1    2.25998612   -2.92780340    1.63590857     13.91646199   -9.07962818    5.31665891      0.00000000    0.00000000    0.00000000
    8    6.20314881   -5.25726577   -1.17343769     19.08067676   -7.23207585   -4.96183716      0.00000000    0.00000000    0.00000000
    1    6.12703044   -6.07150319   -1.81293906    -10.67070716    0.23863126   -2.37179758      0.00000000    0.00000000    0.00000000
    1    5.22495695   -4.95022684   -1.28177500     -3.02232667    5.32766134    3.04191905      0.00000000    0.00000000    0.00000000
    8    6.31599102    3.92315026   -4.80140784    -18.75559989   20.42698774   16.15945673      0.00000000    0.00000000    0.00000000
    1    5.81548930    3.23730651   -5.38381495      1.05876698   -7.67319531   -5.53205656      0.00000000    0.00000000    0.00000000
    1    6.66461991    4.38246296   -5.61869810      9.44583562    2.86170321  -10.11683673      0.00000000    0.00000000    0.00000000
    8   -3.04691261   -5.52844672   -4.52867412    -16.75791935    6.34779837  -10.47243210      0.00000000    0.00000000    0.00000000
    1   -4.01197854   -5.67480519   -4.33393954      1.10361552   -0.87325947    4.62490948      0.00000000    0.00000000    0.00000000
    1   -2.54060449   -6.26370620   -3.97424255    -12.27615109   -6.40732795    9.72487780      0.00000000    0.00000000    0.00000000
    8   -3.42911677    6.70224009    4.54392724     -7.20193571   -4.25244041  -25.31815534      0.00000000    0.00000000    0.00000000
    1   -2.88001084    5.84821347    4.32232001     -2.25150876    4.02773710    2.39095536      0.00000000    0.00000000    0.00000000
    1   -2.90884506    7.02569664    5.34986807      9.80653471    3.01060045   14.07432997      0.00000000    0.00000000    0.00000000
    8   -2.09387579    5.72129761   -4.21527173      7.57119758   26.06631255   -7.71794254      0.00000000    0.00000000    0.00000000
    1   -2.85327484    4.98058582   -4.49206685     -2.89358449   -8.10124648    3.81361790      0.00000000    0.00000000    0.00000000
    1   -1.90405295    5.35419110   -3.29845688     -5.31225776   -7.99021371    9.92876595      0.00000000    0.00000000    0.00000000
    8   -1.29279805    4.71406314    5.37460575     -6.03010870  -39.14787632  -13.86681723      0.00000000    0.00000000    0.00000000
    1   -2.15501967    4.87257814    5.92918891     -8.21554423    5.26368958   12.71765342      0.00000000    0.00000000    0.00000000
    1   -1.81718929    4.84288436    4.49969187      3.61035061  -12.25576160   -7.43523225      0.00000000    0.00000000    0.00000000
    8    7.07333187   -0.32156553   -5.64653300     10.73039490  -15.46911253  -10.45600372      0.00000000    0.00000000    0.00000000
    1    7.11488148    0.46518069   -4.99107450      0.78738925   13.41507025   11.02596706      0.00000000    0.00000000    0.00000000
    1    6.03940680   -0.36464150   -5.49875092     -6.40715779    5.23380569    1.18094862      0.00000000    0.00000000    0.00000000
    8   -5.73336008    0.83074762    4.95594425      0.08692348  -19.48563937  -10.60316937      0.00000000    0.00000000    0.00000000
    1   -5.29638128    1.61284972    5.44801377      5.73602624    0.70685670   16.26792711      0.00000000    0.00000000    0.00000000
    1   -5.09934150    0.05763637    5.17685824     11.45440798   -2.68500615    6.55934230      0.00000000    0.00000000    0.00000000
    8    4.96815401   -5.05042822    2.59011685      5.50535157   -1.54809358   28.47334877      0.00000000    0.00000000    0.00000000
    1    4.24622994   -4.77935917    1.87550115     -6.90687084   -6.52840810  -15.13878513      0.00000000    0.00000000    0.00000000
    1    5.58752187   -4.19997884    2.72776604      6.33611234    8.28518596   -7.72238543      0.00000000    0.00000000    0.00000000
    8   -5.05620917    6.83332363   -1.86248994    -28.42130929   -5.18725722   10.88100061      0.00000000    0.00000000    0.00000000
    1   -4.23165894   -7.06062876   -2.13222325     13.97437744    3.48573728    0.23679401      0.00000000    0.00000000    0.00000000
    1   -5.63031391    7.10803997   -2.68225048      0.73313661    7.21703914  -14.96717506      0.00000000    0.00000000    0.00000000
    8    3.44568852   -2.57352753    3.31849475     -3.75794997   16.84650857  -25.69969389      0.00000000    0.00000000    0.00000000
    1    3.74725358   -3.58635010    3.11529283      1.72686337  -11.27377753   10.61867975      0.00000000    0.00000000    0.00000000
    1    3.32352629   -2.66976442    4.36621311     -4.56302086   -5.32290299   19.37947659      0.00000000    0.00000000    0.00000000
    8    2.45586980   -5.56874299    1.22638571      9.09317483   29.77492716    6.29669640      0.00000000    0.00000000    0.00000000
    1    2.15566307   -5.51101290    0.19186382      1.42790903  -13.20263033  -11.32868335      0.00000000    0.00000000    0.00000000
    1    2.49894015   -6.59269851    1.20520357      9.37677272    1.60159410  -15.05760687      0.00000000    0.00000000    0.00000000
    8   -2.83562064   -1.85714930   -5.19314558     10.29177233   18.71192258   25.10911443      0.00000000    0.00000000    0.00000000
    1   -3.68014798   -2.21779891   -5.63376884     13.22045683   -8.75938327   -0.43689886      0.00000000    0.00000000    0.00000000
    1   -2.42170496   -2.36682302   -5.98605119      1.14283994  -12.38235819  -11.31746127      0.00000000    0.00000000    0.00000000
    8   -2.71396159   -3.90191632    7.09441363    -20.62975829   23.09005327   11.50567283      0.00000000    0.00000000    0.00000000
    1   -2.46236590   -3.85141209    6.10008622     13.49112473   -6.55572408  -10.36916831      0.00000000    0.00000000    0.00000000
    1   -2.43086588   -4.85869095   -7.10615912      2.99710485   -6.52518979   -6.69970361      0.00000000    0.00000000    0.00000000
    8    1.93349116    5.55398168    4.84201992     15.77111773   -5.69248856  -30.07677889      0.00000000    0.00000000    0.00000000
    1    2.14754632    4.54174104    4.92568930      1.79310229   -9.01909235    8.02109227      0.00000000    0.00000000    0.00000000
    1    2.48578714    5.85539684    5.61446193      8.09033223    3.73073795    9.45891137      0.00000000    0.00000000    0.00000000
    8   -4.22607615    2.81095703    6.74908609     -7.70098197  -15.29313378  -25.15556427      0.00000000    0.00000000    0.00000000
    1   -4.22122155    2.03151770   -7.05520747     -1.33466506   -0.75145533    6.63064644      0.00000000    0.00000000    0.00000000
    1   -3.82973929    3.52234117   -7.09252848      1.50381117   13.73934166    7.64531530      0.00000000    0.00000000    0.00000000
    8    4.25656915    4.22560675   -2.48705379     19.42301542   23.56608510   11.64544650      0.00000000    0.00000000    0.00000000
    1    3.55332027    3.52919538   -2.45663922    -17.42381570  -10.09899010    2.67845481      0.00000000    0.00000000    0.00000000
    1    4.64705723    3.96856753   -3.40113270      0.98416724   -4.92710973  -11.01904699      0.00000000    0.00000000    0.00000000
    8   -2.44216808   -2.64056973   -2.24224419     -1.70391696    2.72089617   23.10155956      0.00000000    0.00000000    0.00000000
    1   -3.30054165   -3.21555422   -2.12266295     -7.34056600   -5.95485514  -10.75589058      0.00000000    0.00000000    0.00000000
    1   -2.74486072   -2.17050922   -3.09536143     -4.48413209   -1.00364653  -16.24804623      0.00000000    0.00000000    0.00000000
    8    5.70188856    5.11372064    0.55485364     18.64506026  -19.44686854  -31.33894599      0.00000000    0.00000000    0.00000000
    1    5.34456523    5.60671191   -0.28431675      4.20355504    7.37063671   -2.24569338      0.00000000    0.00000000    0.00000000
    1    5.20871825    5.63793153    1.34495701     -7.04708646    2.07947540   18.10363654      0.00000000    0.00000000    0.00000000
    8    3.94349984    0.94635712   -2.74862432     17.64823823    1.61436511   15.55831320      0.00000000    0.00000000    0.00000000
    1    4.23922743    1.54512806   -3.44301101     -1.83889402   -3.30402278  -12.29044327      0.00000000    0.00000000    0.00000000
    1    3.41671293    0.35505976   -3.41360514     -3.62515378   -2.78787537   -3.07576298      0.00000000    0.00000000    0.00000000
    8    4.18119041   -7.12730089   -2.69678878      6.62124076   15.30455102   14.97439358      0.00000000    0.00000000    0.00000000
    1    3.83459827   -7.11169622   -3.67876239     -8.20474570   -7.47578299   -9.54160830      0.00000000    0.00000000    0.00000000
    1    4.72913375    6.41063785   -2.75186191     -3.94378108  -11.23830715   -8.41354963      0.00000000    0.00000000    0.00000000
    8   -3.88130456    1.90871354   -2.66840032    -32.01355341  -10.06722210   -3.09953010      0.00000000    0.00000000    0.00000000
    1   -2.88852643    1.83253233   -2.79499409     17.06263325    2.20685956   -2.58098357      0.00000000    0.00000000    0.00000000
    1   -3.95684765    2.80033766   -2.20714562     12.10016266    6.22828058    6.21641310      0.00000000    0.00000000    0.00000000
    8    5.56739748    4.67303123    6.03249436      3.16844080   -0.35836481   25.03265196      0.00000000    0.00000000    0.00000000
    1    5.25219978    5.15629290    5.16181679      3.24506031    7.88120779   -8.69699309      0.00000000    0.00000000    0.00000000
    1    5.92452355    3.87272549    5.53235337      6.50111153   -8.78384473  -12.44553775      0.00000000    0.00000000    0.00000000
    8    3.93813613   -1.00546636   -5.22466311     24.44776678   12.54624701   -4.17056777      0.00000000    0.00000000    0.00000000
    1    3.03671696   -0.90521442   -4.75537658    -17.23948960   -9.08449550    3.54101188      0.00000000    0.00000000    0.00000000
    1    3.59699848   -1.73778544   -5.92037139     -0.96245341   -6.11777186    6.95338757      0.00000000    0.00000000    0.00000000
    8   -0.13010557   -1.44693707    2.69934717    -13.92230628  -20.68713263    8.52231276      0.00000000    0.00000000    0.00000000
    1    0.20161795   -0.51903860    2.32743319      4.62541246   12.10924314    4.43150013      0.00000000    0.00000000    0.00000000
    1    0.56684438   -2.08695010    2.26056386      8.52420618    0.28462272   -6.64936203      0.00000000    0.00000000    0.00000000
    8    0.04994572   -1.89356897   -1.57029017     24.55372087  -39.72268488  -23.37110592      0.00000000    0.00000000    0.00000000
    1   -0.86131891   -1.59281850   -1.23643313    -11.20723141   -2.12761021   -8.53623620      0.00000000    0.00000000    0.00000000
    1    0.53857076   -1.83731092   -0.65916030     11.64730086  -22.36755208   -8.42872887      0.00000000    0.00000000    0.00000000
    8   -0.06499100    7.11574860   -1.07211214     14.68394830   28.77046137   -5.47799683      0.00000000    0.00000000    0.00000000
    1   -0.72810182   -7.20309250   -0.30934353     -2.17156961  -18.55455617    8.21609405      0.00000000    0.00000000    0.00000000
    1    0.27484720    6.14367704   -0.99928256     -5.02994405  -16.35627059    5.36835120      0.00000000    0.00000000    0.00000000
    8    2.74803531    0.62940130    6.49677643      3.94029114   24.38438513   -4.15037805      0.00000000    0.00000000    0.00000000
    1    3.64419592    0.07985664    6.30815941      7.59492935  -12.52573050   -7.48521302      0.00000000    0.00000000    0.00000000
    1    2.20630390   -0.14111627    6.91287260     -8.84986655   -8.92840377   -2.29175295      0.00000000    0.00000000    0.00000000
    8    6.52478311    2.13715645    4.35801808    -35.90954199   36.91038414    3.56066328      0.00000000    0.00000000    0.00000000
    1    6.66105241    1.17106063    4.56086550      9.76323085  -11.84851660    3.16767645      0.00000000    0.00000000    0.00000000
    1    6.94828800    2.18898800    3.42905208     -1.80777496   -3.85825549   -9.03964618      0.00000000    0.00000000    0.00000000
    8    0.68531399    1.38707526    3.01218425     -2.99070642  -15.09631257   17.70865489      0.00000000    0.00000000    0.00000000
    1    0.70979930    1.76557369    2.05668073     -2.29456488    8.39857944   -9.92011033      0.00000000    0.00000000    0.00000000
    1    1.69380700    1.41259675    3.22846310     11.10172320   -3.29777065   -0.60183274      0.00000000    0.00000000    0.00000000
    8   -6.38400326    0.87255622   -0.67036298     20.91786749   15.66992911    9.56597087      0.00000000    0.00000000    0.00000000
    1    7.14871939    0.47168326   -0.93020791     -8.01143760   -6.07219710    0.32445907      0.00000000    0.00000000    0.00000000
    1   -6.20670582    1.49644455   -1.46941494     -4.82026867   -3.96325329   -6.24450510      0.00000000    0.00000000    0.00000000
    8    0.18807019    0.08951900   -6.48622455     25.39837905    1.44126382   28.85326059      0.00000000    0.00000000    0.00000000
    1    0.08927104   -0.61411794    7.19750367    -10.31968209   -8.66231806  -14.69707435      0.00000000    0.00000000    0.00000000
    1   -0.77120181    0.50264126   -6.47888072    -12.51879889    1.18452283   -5.54550639      0.00000000    0.00000000    0.00000000
    8   -6.66192734    4.19584518   -1.34961596     10.53581114  -22.10982699   -1.31296192      0.00000000    0.00000000    0.00000000
    1    6.94782190    4.46449602   -0.77117551     -6.97102917   12.11578175    5.76224643      0.00000000    0.00000000    0.00000000
    1   -6.66366870    5.06705553   -1.87479854      1.30473641   10.59746228   -0.37582035      0.00000000    0.00000000    0.00000000
    8    0.88285106    6.85017664    2.19749305    -22.39691564   -2.94145841   -7.83606856      0.00000000    0.00000000    0.00000000
    1    1.76565511    6.86306816    1.65747178     -1.67287527  -16.62394660    6.29348989      0.00000000    0.00000000    0.00000000
    1    1.28021572    6.48562026    3.07340644      6.41548976   -4.94177873   12.30408882      0.00000000    0.00000000    0.00000000
    8   -6.05196159   -4.39451608    6.97003791     -1.56764874   13.32242711   17.85330597      0.00000000    0.00000000    0.00000000
    1   -6.25849970   -5.29122671    6.54706711      6.37668125  -17.93993779  -12.14107713      0.00000000    0.00000000    0.00000000
    1   -5.12801336   -4.19745254    6.51983395      5.56609788   -7.23358337  -10.11367784      0.00000000    0.00000000    0.00000000
    8   -5.30001566   -3.10436848   -5.07769774    -14.61580098    9.38248125   15.25580789      0.00000000    0.00000000    0.00000000
    1   -5.13501021   -2.29809664   -5.67364156     -9.50983380   -1.32295869   -2.94934718      0.00000000    0.00000000    0.00000000
    1   -5.12518386   -3.77465727   -5.86186252     -3.64162372   -7.18830071  -14.88531267      0.00000000    0.00000000    0.00000000
    8   -6.20939491   -1.14576610    2.74950222    -18.98925024   -6.71911100   11.05955580      0.00000000    0.00000000    0.00000000
    1   -5.58533752   -1.28117551    1.97659887      2.51617761    0.45545683  -13.33522088      0.00000000    0.00000000    0.00000000
    1   -5.61897851   -0.51144191    3.29882875      6.27730410    7.55369923    3.63798158      0.00000000    0.00000000    0.00000000
    8    4.59574073   -3.66737510   -6.55364112    -10.03404128   14.47717031   10.10459606      0.00000000    0.00000000    0.00000000
    1    3.82804789   -3.99119580   -5.95382371     -2.06215537   -1.95160992    1.93248224      0.00000000    0.00000000    0.00000000
    1    5.12939205   -4.51726307   -6.81034138      2.22327524   13.43556632   -9.48381192      0.00000000    0.00000000    0.00000000
    8   -5.87621587   -3.69201584   -2.45046215     19.41794285    3.26910225   23.51264830      0.00000000    0.00000000    0.00000000