 BEGIN_INFO
   #
   # This is a XCRYSDEN-Structure-File
   # aimed for Visualization of Fermi Surface
   #
   # Case: Tight-binding calculation
   #
   # Launch as: xcrysden --xsf HICOLM.XSF
   #
 END_INFO
 # estrutura final
CRYSTAL
PRIMVEC
      19.00000000       0.00000000       0.00000000
       0.00000000      19.00000000       0.00000000
       0.00000000       0.00000000      19.00000000
PRIMCOORD
  300    1
    8   -4.07160653    3.21638268   -8.77749676      5.61420032    0.01471915   -5.32639078      0.00000000    0.00000000    0.00000000
    1   -4.64451088    4.02778193   -8.89318342     -1.62453859   -3.14275701    3.85105732      0.00000000    0.00000000    0.00000000
    1   -4.06515311    2.42092406   -8.17154326     -3.96400979    3.05391060    1.31203865      0.00000000    0.00000000    0.00000000
    8   -4.80183236   -7.96239918    6.20352258     -7.90819234   -0.07134563    0.63595632      0.00000000    0.00000000    0.00000000
    1   -4.42379116   -8.84016575    5.90926193      4.13956051    3.30558036    0.42456036      0.00000000    0.00000000    0.00000000
    1   -4.43541316   -7.05683313    6.41720300      3.81425052   -3.29653454   -1.49710408      0.00000000    0.00000000    0.00000000
    8   -7.20812359   -8.88621233    1.40381334     -5.34477939    0.23902671    4.60565312      0.00000000    0.00000000    0.00000000
    1   -7.47944560   -8.49486328    0.52449508      4.69051050   -2.01229013   -0.01363692      0.00000000    0.00000000    0.00000000
    1   -6.40392435   -9.35988123    1.76280319      0.56089468    1.56880084   -4.83441873      0.00000000    0.00000000    0.00000000
    8    6.19651435   -5.65178350   -3.25407380      0.70794755    6.69988502    2.63781674      0.00000000    0.00000000    0.00000000
    1    6.98338020   -6.21883480   -3.01062912     -3.55114669   -2.46384902   -2.64699531      0.00000000    0.00000000    0.00000000
    1    5.33398039   -5.78934235   -3.74098264      3.31108494   -4.26133739    0.42320772      0.00000000    0.00000000    0.00000000
    8    7.02310398    1.42235384    5.51024701     -1.01757178   -6.85519227    2.77404157      0.00000000    0.00000000    0.00000000
    1    7.69364506    1.94423136    6.03749384     -1.96382732    2.70670618   -4.08310102      0.00000000    0.00000000    0.00000000
    1    6.45913630    1.58645181    4.70093643      2.97290282    4.14917742    1.28986421      0.00000000    0.00000000    0.00000000
    8   -9.41885394    5.50150378    2.41905581      3.50367750   -4.04135587    5.27903765      0.00000000    0.00000000    0.00000000
    1   -9.70108900    4.90837602    1.66505775     -1.37379462    4.45883925   -0.57086263      0.00000000    0.00000000    0.00000000
    1   -9.50101883    6.47351932    2.63907201     -2.29024537   -1.27432512   -4.69745812      0.00000000    0.00000000    0.00000000
    8   -5.73956388    7.80510511   -1.85509121      7.57116089   -0.91828800   -1.02227677      0.00000000    0.00000000    0.00000000
    1   -6.20186022    6.91897668   -1.82300475     -3.22820041    4.12460483    0.74492362      0.00000000    0.00000000    0.00000000
    1   -6.00684304    8.76069298   -1.73105114     -4.13878878   -3.22748049    0.29631485      0.00000000    0.00000000    0.00000000
    8    3.46828822    9.17029217   -4.97451629      5.85429200   -1.41939584   -4.65429456      0.00000000    0.00000000    0.00000000
    1    2.95078846   -8.97640759   -5.03812703     -1.84058341   -3.93579051    3.52565966      0.00000000    0.00000000    0.00000000
    1    3.40283826    8.32755409   -4.44022600     -4.17238373    5.03028122    1.91671620      0.00000000    0.00000000    0.00000000
    8   -8.88343349   -5.03645960   -6.52239326      6.63734392    0.67328189    2.53645686      0.00000000    0.00000000    0.00000000
    1    9.49970873   -4.31315736   -6.21207928     -2.35744876   -2.81396415   -3.29891246      0.00000000    0.00000000    0.00000000
    1   -8.96205095   -5.85179611   -7.09599131     -4.19882193    2.44908416    0.57861767      0.00000000    0.00000000    0.00000000
    8    6.03963555   -3.80007509    4.20060879      0.42637517   -6.99794266    1.90882107      0.00000000    0.00000000    0.00000000
    1    5.10319302   -3.44942657    4.21028149      3.49339522    3.53408636   -1.42682274      0.00000000    0.00000000    0.00000000
    1    6.94367209   -3.43095895    3.98510639     -3.93208595    3.41080221   -0.48799468      0.00000000    0.00000000    0.00000000
    8    4.41195070   -8.43151111   -8.18923448      0.40946864    3.75618923   -6.63383440      0.00000000    0.00000000    0.00000000
    1    3.69380530   -9.12727695   -8.17701769      2.54725280    0.24462184    4.63456002      0.00000000    0.00000000    0.00000000
    1    5.08825510   -8.08443515   -7.53952584     -3.02202546   -4.02989912    1.99382124      0.00000000    0.00000000    0.00000000
    8   -9.28289900    2.15863784    2.09037737      7.15332559   -0.12111264   -0.13925404      0.00000000    0.00000000    0.00000000
    1    9.34210872    3.08565283    2.08963211     -3.62441306   -3.03802582    0.10102055      0.00000000    0.00000000    0.00000000
    1    9.34278476    1.23136345    2.09461216     -3.61148886    3.64044447    0.11908500      0.00000000    0.00000000    0.00000000
    8    4.15487136   -7.33410696   -2.21071824     -1.96322571   -0.84087500    6.95262454      0.00000000    0.00000000    0.00000000
    1    5.09655159   -7.61133457   -2.40138956     -2.53788162    1.55370989   -4.16335860      0.00000000    0.00000000    0.00000000
    1    3.38285953   -6.99316002   -2.74711599      4.24453414   -0.85866664   -2.68466289      0.00000000    0.00000000    0.00000000
    8    1.03223814    5.02630331    6.50173702     -0.05507650    6.84862100   -2.99342721      0.00000000    0.00000000    0.00000000
    1    0.15734159    4.54497332    6.44834459      3.65330768   -2.86553193    2.37455153      0.00000000    0.00000000    0.00000000
    1    1.94086283    4.82820899    6.86933700     -3.39728616   -4.26758815    0.56372642      0.00000000    0.00000000    0.00000000
    8    5.70558084    9.32304439    3.51664247      2.41051265   -7.24295755    0.28935659      0.00000000    0.00000000    0.00000000
    1    4.73401381   -9.60235552    3.74128404      2.07824968    4.77035461   -1.14343386      0.00000000    0.00000000    0.00000000
    1    6.43652904   -9.04241067    3.26556400     -4.65114321    2.45415000    0.78564352      0.00000000    0.00000000    0.00000000
    8    0.98323207    9.05561997    0.69025198      6.07761500   -2.89438439    2.54943943      0.00000000    0.00000000    0.00000000
    1    0.88880262   -8.94891850    0.67945910     -4.10812788   -2.39880219   -1.94670228      0.00000000    0.00000000    0.00000000
    1    0.42255690    8.27687394    0.40889928     -2.07247657    5.19439012   -0.59395736      0.00000000    0.00000000    0.00000000
    8    5.22355939   -0.07562461   -5.32228644     -5.29658195   -4.53779571   -1.91858109      0.00000000    0.00000000    0.00000000
    1    4.90550956    0.65101178   -4.71334115      5.12075500    0.12139046   -1.17699719      0.00000000    0.00000000    0.00000000
    1    6.09436000   -0.33356858   -5.74078420      0.08230238    4.53936577    3.01613217      0.00000000    0.00000000    0.00000000
    8   -1.52817294   -5.79372299   -6.16669033      0.02606084    2.53023877    6.97599715      0.00000000    0.00000000    0.00000000
    1   -0.99438383   -6.63698247   -6.22958179     -2.20305125    1.07894987   -4.50685564      0.00000000    0.00000000    0.00000000
    1   -2.09808979   -5.25527363   -6.78736710      2.99256430   -3.50537746   -2.66569204      0.00000000    0.00000000    0.00000000
    8    6.58453671   -4.56390777    8.20497340     -2.91640719    2.66951887   -5.72491955      0.00000000    0.00000000    0.00000000
    1    6.89510713   -3.83222868    8.81173502      0.45662662   -4.42737504    1.27868983      0.00000000    0.00000000    0.00000000
    1    6.59612221   -5.56372373    8.21933177      2.10467522    2.03492673    4.11150328      0.00000000    0.00000000    0.00000000
    8   -8.18274085   -9.15521643   -4.50141906      3.69681061    1.93991538    4.21328097      0.00000000    0.00000000    0.00000000
    1   -7.60948911   -9.02539868   -5.31041985     -4.48304190   -2.02734577    0.72000382      0.00000000    0.00000000    0.00000000
    1   -9.11207089    9.52168232   -4.32274323      1.41837344   -0.08506827   -5.55927583      0.00000000    0.00000000    0.00000000
    8   -6.21080177   -2.68625290   -7.84494304     -4.88364967    6.10260975   -0.35506122      0.00000000    0.00000000    0.00000000
    1   -6.74142170   -3.53023425   -7.76681143      5.82918139   -0.48728118    0.49025054      0.00000000    0.00000000    0.00000000
    1   -5.24277511   -2.45062897   -7.93086699     -0.13687224   -5.25643478    0.63414445      0.00000000    0.00000000    0.00000000
    8  -24.03576603   10.28315416  -31.84428081      7.05296131    2.15241380    0.11156884      0.00000000    0.00000000    0.00000000
    1  -24.12455002    9.28808012  -31.80052594     -4.60301860    2.46162332   -0.25319226      0.00000000    0.00000000    0.00000000
    1  -24.66358837   11.05954027  -31.89937172     -2.44994271   -4.61403712    0.14162342      0.00000000    0.00000000    0.00000000
    8   -7.48849479    7.70450411    2.98546705      7.13348161   -1.51082751    2.34039830      0.00000000    0.00000000    0.00000000
    1   -7.51259827    8.14157418    2.08637785     -5.00473725   -0.51559754    1.95439332      0.00000000    0.00000000    0.00000000
    1   -8.16518712    7.40674345    3.65881504     -2.04203295    2.16187407   -4.14087892      0.00000000    0.00000000    0.00000000
    8   -9.24492222    1.78198198   -7.25890157      7.12957201   -0.49494978   -1.18292766      0.00000000    0.00000000    0.00000000
    1    9.34770854    0.88526010   -7.08595055     -3.31357280    3.75436089    0.12026199      0.00000000    0.00000000    0.00000000
    1   -9.57755699    2.72286419   -7.32266315     -3.80927223   -3.34002988    0.89678509      0.00000000    0.00000000    0.00000000
    8    7.22270494    0.71626482    0.18564147      2.37455519   -6.83583707   -0.65088147      0.00000000    0.00000000    0.00000000
    1    6.31514475    0.84906917   -0.21268993      1.99050382    4.29027990    2.13509067      0.00000000    0.00000000    0.00000000
    1    7.88779421    1.28765308    0.66641488     -4.34053147    2.64168932   -1.49071450      0.00000000    0.00000000    0.00000000
    8    1.67367418   -1.51902191   -7.54577775     -2.64996209    6.88770253    0.76897483      0.00000000    0.00000000    0.00000000
    1    0.96634281   -2.15127525   -7.86186286      4.67955530   -2.29162272    0.73144716      0.00000000    0.00000000    0.00000000
    1    2.64355116   -1.58385830   -7.31102960     -2.00827569   -4.57356191   -1.45034275      0.00000000    0.00000000    0.00000000
    8   28.66497725  -23.20698166   13.59849394     -3.14025424   -6.58022882   -0.97999481      0.00000000    0.00000000    0.00000000
    1   29.29008300  -23.19937509   14.37897847     -0.30546468    4.61695089   -2.42940861      0.00000000    0.00000000    0.00000000
    1   28.35662651  -22.54283418   31.91746549      3.42301857    1.99453704    3.40828176      0.00000000    0.00000000    0.00000000
    8    2.74303577   -5.37808967   -4.36848591     -3.13172545    6.24576553   -0.45189892      0.00000000    0.00000000    0.00000000
    1    2.08297420   -6.12824860   -4.40785119      4.77859519   -1.50256552    0.43013116      0.00000000    0.00000000    0.00000000
    1    3.73587181   -5.29752927   -4.28040859     -1.82370535   -4.63558665   -0.02535776      0.00000000    0.00000000    0.00000000
    8   -6.20012604    2.60572263    3.09874767      2.97501428   -3.14943780   -6.27334053      0.00000000    0.00000000    0.00000000
    1   -5.66699344    3.39968518    3.39091456     -4.28065670   -1.02936609    3.08558885      0.00000000    0.00000000    0.00000000
    1   -7.01820866    2.13017831    3.42212388      1.15578040    4.19491871    2.86357197      0.00000000    0.00000000    0.00000000
    8   -4.40995816   -6.44071974   -5.89228107      0.81747507   -7.30817544   -0.09995324      0.00000000    0.00000000    0.00000000
    1   -5.37121122   -6.16510864   -5.88990470      3.06847314    4.06003325    0.02125637      0.00000000    0.00000000    0.00000000
    1   -3.52709986   -5.97112902   -5.89544003     -4.26470241    1.66820470    1.21186919      0.00000000    0.00000000    0.00000000
    8   -6.96655559    5.31695924   -6.69855229      0.56495506    7.25612416   -1.28565020      0.00000000    0.00000000    0.00000000
    1   -6.10467380    4.89389044   -6.41900641     -3.71407060   -3.69289377   -0.35306574      0.00000000    0.00000000    0.00000000
    1   -7.89917650    5.00141780   -6.87354703      3.18535419   -3.89803046    1.38923688      0.00000000    0.00000000    0.00000000
    8   -1.92646390   -1.55672416   -3.58718914     -6.27338917   -3.72518518   -1.05005362      0.00000000    0.00000000    0.00000000
    1   -2.08515180   -0.57376474   -3.49455728      5.09378675   -1.32137484    0.52477301      0.00000000    0.00000000    0.00000000
    1   -1.12849149   -2.15938932   -3.58943587      1.30764268    4.96620521    0.65758079      0.00000000    0.00000000    0.00000000
    8   -3.34981622   -7.06475583   -8.24147946      6.17979701   -3.03368467   -3.53249702      0.00000000    0.00000000    0.00000000
    1   -4.18966324   -7.51379340   -8.54642403     -0.62930227    3.90702654    3.73322771      0.00000000    0.00000000    0.00000000
    1   -3.11624756   -6.34033354   -7.59292280     -5.26725867   -1.64668161   -0.72651952      0.00000000    0.00000000    0.00000000
    8    3.28223331  -10.86812899   -4.55784966      1.04476397    7.24812216   -4.18720211      0.00000000    0.00000000    0.00000000
    1    3.71341440    7.32499528   -4.96160179     -2.16616453   -1.40790505    3.54271007      0.00000000    0.00000000    0.00000000
    1    2.72814518  -10.67843113   -3.74731250      1.32587521   -5.42613274   -0.25014712      0.00000000    0.00000000    0.00000000
    8   -5.24947377   -5.96260997   -3.09824129     -3.30855130    5.06226102   -4.56623569      0.00000000    0.00000000    0.00000000
    1   -4.28509231   -5.78914287   -2.89860562     -1.54046653   -3.97179639    2.45307802      0.00000000    0.00000000    0.00000000
    1   -5.93647309   -6.62731503   -2.80469814      4.68354499   -1.10952791    2.28214486      0.00000000    0.00000000    0.00000000
    8   -6.03384381   -3.65634148    2.63118865      7.68715692    2.93208380   -0.80265450      0.00000000    0.00000000    0.00000000
    1   -6.26941581   -3.86707069    3.57991180     -4.29821641   -1.34599084   -3.02309607      0.00000000    0.00000000    0.00000000
    1   -6.49601700   -3.71130595    1.74611831     -3.70985151   -1.75452522    3.94533358      0.00000000    0.00000000    0.00000000
    8    7.60236159   -3.43635674   -1.07443204     -0.90292695    7.30145463   -0.11238208      0.00000000    0.00000000    0.00000000
    1    6.74803498   -3.95061310   -0.99933161      4.08239273   -3.17818262   -0.29490558      0.00000000    0.00000000    0.00000000
    1    8.57599914   -3.66098922   -1.11366813     -3.31739389   -4.18993694    0.50608594      0.00000000    0.00000000    0.00000000
    8   -3.43228439   -4.28315840   -7.11815016     -4.17482755    4.86969909    3.19090497      0.00000000    0.00000000    0.00000000
    1   -3.01076178   -3.92355059   -7.95060294      1.20739746   -4.58754604    0.34619568      0.00000000    0.00000000    0.00000000
    1   -3.41572702   -5.15027390   -6.62035402      2.10134196    0.81951727   -4.86213967      0.00000000    0.00000000    0.00000000
    8   -3.43272977   -8.60886149   -1.89069268     -3.08908948    0.96094498   -6.67408614      0.00000000    0.00000000    0.00000000
    1   -3.26461646   -7.73225707   -1.43983452      1.54527046   -4.08469384    3.09492216      0.00000000    0.00000000    0.00000000
    1   -3.28694351   -9.57248054   -1.66673678      1.53184519    3.21311773    3.65678840      0.00000000    0.00000000    0.00000000
    8   -8.93397554    7.68674302   -2.25741132      2.48632751    6.87415276    0.02269559      0.00000000    0.00000000    0.00000000
    1   -8.41100757    7.10882206   -1.63092693     -4.00269725   -2.50493263   -2.44223428      0.00000000    0.00000000    0.00000000
    1   -9.71661207    7.56197331   -2.86723365      1.34109179   -4.36915051    2.50644280      0.00000000    0.00000000    0.00000000
    8   -0.02887891    2.63555637    2.80797272     -2.45362997   -0.56242817    6.85529578      0.00000000    0.00000000    0.00000000
    1    0.94768487    2.43461496    2.73103959     -2.19926318    1.24962988   -4.52270237      0.00000000    0.00000000    0.00000000
    1   -0.75963595    2.90376297    2.18025637      4.66184231   -0.69015499   -2.32669238      0.00000000    0.00000000    0.00000000
    8    1.05370599    1.27042101   -2.20963088     -6.01860057    2.69036286    3.50979231      0.00000000    0.00000000    0.00000000
    1    1.28147975    0.32841081   -1.96323654      3.29468114    1.97580413   -3.50609587      0.00000000    0.00000000    0.00000000
    1    1.43235916    1.96570130   -2.82051286      2.77942487   -4.66552594   -0.04553337      0.00000000    0.00000000    0.00000000
    8    4.85347082    3.62018702   -3.72713760      6.94355176    1.63028850    1.90224070      0.00000000    0.00000000    0.00000000
    1    4.74583266    2.64075770   -3.89772743     -4.44589488    2.82322240   -0.63590101      0.00000000    0.00000000    0.00000000
    1    4.26086571    4.42506343   -3.75820938     -2.48734248   -4.39251800   -1.26493448      0.00000000    0.00000000    0.00000000
    8   -7.31648269   -6.62434445   -4.65637462     -0.42118658   -5.90215243   -5.25989416      0.00000000    0.00000000    0.00000000
    1   -8.18867738   -6.39061255   -4.22670000      3.88938138    3.45978432    1.74303540      0.00000000    0.00000000    0.00000000
    1   -6.39280684   -6.24127524   -4.66368311     -3.06140422    2.91234608    3.65027673      0.00000000    0.00000000    0.00000000
    8   -7.41900993   -9.05831976   -8.47194415      4.45788652   -5.67660629    1.55391878      0.00000000    0.00000000    0.00000000
    1   -7.06437957   -8.21467565   10.12495989     -3.84694603    1.16039991    1.24290007      0.00000000    0.00000000    0.00000000
    1   -8.25713711   -9.33354011   -8.00103681     -0.13378200    4.89877854   -3.51935895      0.00000000    0.00000000    0.00000000
    8   -7.79248720    2.95882059    9.05980232      2.60905836    2.97178896    6.36959509      0.00000000    0.00000000    0.00000000
    1   -8.13122970    2.02383276    9.16480681     -0.46807597    1.72932300   -4.80678098      0.00000000    0.00000000    0.00000000
    1   -7.69274271    3.60716108    8.30503395     -2.09097135   -4.64470293   -1.52403958      0.00000000    0.00000000    0.00000000
    8   -7.36131709   -6.44270557    3.16724502      6.04200039   -1.11641272   -4.39309898      0.00000000    0.00000000    0.00000000
    1   -7.32349234   -6.91826445    4.04610052     -4.40290219    2.80799018   -0.34271090      0.00000000    0.00000000    0.00000000
    1   -8.01972066   -5.85761384    2.69380845     -1.59253008   -1.52834150    4.81762454      0.00000000    0.00000000    0.00000000
    8   -3.27261590   -4.32341466   -4.29858598     -0.89669145   -3.88820206    6.58375534      0.00000000    0.00000000    0.00000000
    1   -3.22110831   -3.33412674   -4.16208725      0.59184973   -0.99896797   -4.83867477      0.00000000    0.00000000    0.00000000
    1   -3.21988983   -4.94538501   -5.07982767      0.74638581    5.71523203   -0.43993756      0.00000000    0.00000000    0.00000000
    8   -3.00480367   -6.46991277    8.05633771      2.54561543    5.56304040    4.13434393      0.00000000    0.00000000    0.00000000
    1   -4.00389694   -6.50427561    8.03175641      2.13251730   -3.77620213   -2.76717304      0.00000000    0.00000000    0.00000000
    1   -2.25690630   -6.98373896    7.63609713     -4.78427345   -1.62279513   -1.56136924      0.00000000    0.00000000    0.00000000
    8    5.60874129    5.99428234    4.04136558      4.21280507   -5.10425796   -3.68683812      0.00000000    0.00000000    0.00000000
    1    5.17900583    6.66578189    3.43771956     -1.11897535    0.90389962    5.05377463      0.00000000    0.00000000    0.00000000
    1    5.61253113    5.80899210    5.02402787     -2.96468391    4.21049887   -1.32649096      0.00000000    0.00000000    0.00000000
    8   -5.89648663    0.96074730   -8.63873725      6.91172120   -3.25240932    0.06910052      0.00000000    0.00000000    0.00000000
    1   -5.86195255    1.93250668   -8.87211318     -5.04335352   -1.51039712    0.73839544      0.00000000    0.00000000    0.00000000
    1   -6.61342111    0.29806020   -8.42234779     -1.98642425    4.81176921   -0.75280163      0.00000000    0.00000000    0.00000000
    8   -4.99964893    9.34754993    8.40040692      1.52562191   -7.52586601    0.58989585      0.00000000    0.00000000    0.00000000
    1   -4.52616743   -9.11882539   -9.89885925     -2.84805489    2.73719727   -3.67506497      0.00000000    0.00000000    0.00000000
    1   -5.62370414   -9.45410575    7.64463708      1.45890396    4.56305384    2.26078553      0.00000000    0.00000000    0.00000000
    8   -6.23442657   -1.62427504    4.66443458     -6.60597813   -3.79646458    0.29264656      0.00000000    0.00000000    0.00000000
    1   -6.41412479   -0.65009635    4.52785613      5.30604642   -0.97974156    0.46971055      0.00000000    0.00000000    0.00000000
    1   -5.42318017   -2.19533200    4.78992638      1.29842348    5.28531656   -0.74496148      0.00000000    0.00000000    0.00000000
    8   -2.09833017   -1.69678331    7.88948780     -7.06841868   -2.10029186   -0.34898862      0.00000000    0.00000000    0.00000000
    1   -1.98002702   -0.86274910    8.42834114      4.64053041   -1.70896610   -1.86038908      0.00000000    0.00000000    0.00000000
    1   -1.49563546   -2.33626869    7.41221577      2.55281035    3.92839644    2.23077296      0.00000000    0.00000000    0.00000000
    8    6.11369921    7.06919941   -8.83914641      0.77380487    4.80919530   -5.75361789      0.00000000    0.00000000    0.00000000
    1    6.96708363    6.66364807   -8.51167368     -3.94957208   -1.78080245    2.57977234      0.00000000    0.00000000    0.00000000
    1    5.14789353    7.01504519   -8.58566028      3.14398352   -3.03809359    3.03201800      0.00000000    0.00000000    0.00000000
    8    8.02231974   -8.68223606   -4.33685166     -1.55059773   -7.29554769   -0.96790734      0.00000000    0.00000000    0.00000000
    1    8.66352889   -8.52225731   -3.58636522     -1.50258390    4.60741823   -2.12298242      0.00000000    0.00000000    0.00000000
    1    7.51872358   -8.11259398   -4.98636653      2.93247958    2.77183226    3.28275776      0.00000000    0.00000000    0.00000000
    8    8.09787505   -4.46525091   -8.34018583      0.28138578    6.10625723    4.37064039      0.00000000    0.00000000    0.00000000
    1    7.64318313   -4.27048840   -9.20926150      1.92692626   -5.38811674    0.59063018      0.00000000    0.00000000    0.00000000
    1    8.53262129   -5.26088597   -7.91836588     -1.91001147   -1.03970156   -5.03998059      0.00000000    0.00000000    0.00000000
    8   -3.10842738   -6.16194532    4.92216073      7.41214475    0.70259736    0.20510524      0.00000000    0.00000000    0.00000000
    1   -3.42671358   -7.10968723    4.90086766     -3.98808323    3.32337197   -0.14283039      0.00000000    0.00000000    0.00000000
    1   -3.53799175   -5.25895576    4.92951729     -3.39424667   -3.97185581   -0.26217858      0.00000000    0.00000000    0.00000000
    8   -4.72063969    7.86059742   -8.09286006      4.84121640   -2.83094857   -4.63470199      0.00000000    0.00000000    0.00000000
    1   -5.34631536    7.13863413   -7.79744689     -0.55874715    4.20036612    1.89785394      0.00000000    0.00000000    0.00000000
    1   -4.57163499  -10.17788673   -7.86208440     -3.67799144   -2.23345221    3.35236895      0.00000000    0.00000000    0.00000000
    8   -2.81726403   -5.24022822    0.84837331      6.41602895   -3.42314338   -1.52530547      0.00000000    0.00000000    0.00000000
    1   -3.63473059   -5.81435754    0.80256279     -1.21307702    4.57060467    1.22204097      0.00000000    0.00000000    0.00000000
    1   -2.62560968   -4.27420570    1.02168818     -5.12976402   -1.30960334    0.37546124      0.00000000    0.00000000    0.00000000
    8   -9.11139087   -2.69564313    3.28322371      0.39934490   -7.09141360   -2.44389945      0.00000000    0.00000000    0.00000000
    1   -8.22649348   -2.24716052    3.40890329     -3.68641988    3.14594583    1.30698510      0.00000000    0.00000000    0.00000000
    1  -10.07042732   -2.44289055    3.41102580      3.49132065    4.10862564    1.14882086      0.00000000    0.00000000    0.00000000
    8   -0.15029324   -6.21339852    6.66738070     -0.44230479   -0.22293339   -7.15274509      0.00000000    0.00000000    0.00000000
    1   -0.28547559   -7.11642624    7.07510237      1.06368952    3.75257789    3.42930190      0.00000000    0.00000000    0.00000000
    1    0.03833475   -5.29190098    7.00683838     -0.44513387   -3.61133334    3.75735437      0.00000000    0.00000000    0.00000000
    8   14.66312417  -11.08959062   -5.15453785      0.23771585    7.48422142   -0.97371253      0.00000000    0.00000000    0.00000000
    1   13.73478383    7.53882952   -5.14526667      3.69119648   -3.48233566    0.38008188      0.00000000    0.00000000    0.00000000
    1   15.58714278    7.53982700   -5.06057357     -3.77425240   -3.65073757    0.08953097      0.00000000    0.00000000    0.00000000
    8   -1.30650292    5.25608885   -6.51460401      4.31486867    3.00693800    5.32435697      0.00000000    0.00000000    0.00000000
    1   -0.84542319    4.51408667   -7.00123432     -4.84064898    1.00478541   -1.90048314      0.00000000    0.00000000    0.00000000
    1   -2.18713257    5.72455621   -6.58532026      0.54167581   -4.00223649   -3.50040184      0.00000000    0.00000000    0.00000000
    8    0.04543918   -2.48890879    2.87721134     -5.96085549    2.03266211    3.80980022      0.00000000    0.00000000    0.00000000
    1   -0.10972448   -2.41516829    1.89209346      4.83733033   -1.69036019    1.25530054      0.00000000    0.00000000    0.00000000
    1    0.80693709   -2.75703316    3.46729689      1.13394339   -0.35270937   -5.08309909      0.00000000    0.00000000    0.00000000
    8   -6.87674818   -4.31589287    5.37778797      0.59036319   -7.25171998   -1.69421835      0.00000000    0.00000000    0.00000000
    1   -5.98231303   -3.96759719    5.65822206     -3.89766464    3.65612089    0.27738850      0.00000000    0.00000000    0.00000000
    1   -7.79611260   -3.93643444    5.27408102      3.37002771    3.57345699    1.56101372      0.00000000    0.00000000    0.00000000
    8   -3.22570644    1.14850687    8.24215394      4.62068105   -1.33054268   -5.92494450      0.00000000    0.00000000    0.00000000
    1   -3.21733206    2.08580307    8.59055336     -3.35271534   -2.88412745    2.95555455      0.00000000    0.00000000    0.00000000
    1   -3.68292256    0.29384132    8.48805782     -0.92345270    4.32160918    3.10425826      0.00000000    0.00000000    0.00000000
    8    6.60626648   -5.02013790   -5.99091053     -0.97832924    2.11655121    6.86472411      0.00000000    0.00000000    0.00000000
    1    7.55361790   -4.93374505   -6.29918328     -3.43354955   -1.81970293   -3.74354827      0.00000000    0.00000000    0.00000000
    1    5.75121111   -5.36154720   -6.38115317      4.08542444   -0.24739251   -3.38415293      0.00000000    0.00000000    0.00000000
    8  -21.37973511    6.48126303    0.76385020     -2.41987118   -6.25623649    2.98400486      0.00000000    0.00000000    0.00000000
    1   -3.13284357    7.06508750    0.46061660      4.23147465    2.31569545   -0.77417023      0.00000000    0.00000000    0.00000000
    1  -20.38150563    6.54018532    0.76997957     -2.26712437    4.20209358   -2.07853159      0.00000000    0.00000000    0.00000000
    8   -5.08181837    3.07882094    5.74177611      0.80309655   -6.85086355    1.97762666      0.00000000    0.00000000    0.00000000
    1   -4.43961336    3.36868750    5.03218308     -3.08092998    3.69423477    1.64542211      0.00000000    0.00000000    0.00000000
    1   -5.81949144    3.50790203    6.26301948      2.39977920    3.21620023   -3.40850241      0.00000000    0.00000000    0.00000000
    8   -8.17100986   10.21005919   -6.12120598     -4.78275170   -3.36021841    5.98630803      0.00000000    0.00000000    0.00000000
    1   -7.91704431   -7.83819129   -5.94899807      2.19832602   -0.92471888   -3.75841709      0.00000000    0.00000000    0.00000000
    1   -7.98201554    9.53254099   -6.83199771      3.09417900    4.34953220   -0.72625090      0.00000000    0.00000000    0.00000000
    8   -8.87787867    9.49776339    7.43867822      4.19216181   -5.84468584    0.15496018      0.00000000    0.00000000    0.00000000
    1   -8.42458988   -8.70358788    7.83448142     -4.62078872    0.86966999   -1.72430477      0.00000000    0.00000000    0.00000000
    1    9.21699388    9.29649138    7.06423948      0.48083292    4.84092703    1.53325809      0.00000000    0.00000000    0.00000000
    8    7.92917728   -1.51226638   -6.60177812      4.04500143   -5.50688821    1.46493937      0.00000000    0.00000000    0.00000000