 BEGIN_INFO
   #
   # This is a XCRYSDEN-Structure-File
   # aimed for Visualization of Fermi Surface
   #
   # Case: Tight-binding calculation
   #
   # Launch as: xcrysden --xsf HICOLM.XSF
   #
 END_INFO
 # estrutura final
CRYSTAL
PRIMVEC
      19.00000000       0.00000000       0.00000000
       0.00000000      19.00000000       0.00000000
       0.00000000       0.00000000      19.00000000
PRIMCOORD
  300    1
    8   -4.10057611    3.07921366   -8.57791906      0.15692012    0.69282718   -0.39849702      0.00000000    0.00000000    0.00000000
    1   -4.67345816    3.89062264   -8.69363401      0.02846967   -0.00252609    0.08906418      0.00000000    0.00000000    0.00000000
    1   -4.09409317    2.28374567   -7.97198602     -0.08143882   -0.33330062    0.27001626      0.00000000    0.00000000    0.00000000
    8    6.60107030    0.93828597   -3.77973018      0.29503425    0.49751521    0.00049686      0.00000000    0.00000000    0.00000000
    1    6.97907437    0.06050900   -4.07399018     -0.28659595   -0.03450291    0.49983692      0.00000000    0.00000000    0.00000000
    1    6.96745337    1.84386196   -3.56604318      0.06765064    0.05624602    0.17559661      0.00000000    0.00000000    0.00000000
    8   -7.15264122   -8.62694257    1.65782731     -0.17109451   -0.82150040   -0.64142023      0.00000000    0.00000000    0.00000000
    1   -7.42399416   -8.23558659    0.77852328     -0.05488395    0.13188088    0.11731254      0.00000000    0.00000000    0.00000000
    1   -6.34846018   -9.10061556    2.01684625      0.01027240    0.21948393    0.18276949      0.00000000    0.00000000    0.00000000
    8    6.20889473   -5.55892439   -3.38711305     -0.14047065   -0.28503843    0.58843013      0.00000000    0.00000000    0.00000000
    1    6.99577370   -6.12594744   -3.14365209      0.09177229    0.16431112   -0.02584762      0.00000000    0.00000000    0.00000000
    1    5.34635275   -5.69644945   -3.87401507      0.46299082    0.04318143    0.09427861      0.00000000    0.00000000    0.00000000
    8    7.00888861    1.46005251    5.51514348      0.04174695   -0.10667977    0.02159252      0.00000000    0.00000000    0.00000000
    1    7.67943260    1.98190056    6.04241144     -0.02908067    0.04977084   -0.03341613      0.00000000    0.00000000    0.00000000
    1    6.44490863    1.62411657    4.70583747     -0.02045895    0.05821735   -0.00023313      0.00000000    0.00000000    0.00000000
    8   -9.35915324    5.64403104    2.41546064     -0.25465739   -0.46283874    0.01182833      0.00000000    0.00000000    0.00000000
    1    9.35862673    5.05087710    1.66148061     -0.00798262    0.25765963   -0.06520607      0.00000000    0.00000000    0.00000000
    1   -9.44130028    6.61603807    2.63550758     -0.07230864   -0.03589343   -0.20934445      0.00000000    0.00000000    0.00000000
    8   -5.93221206    7.92164157   -2.06582723      0.37339353   -0.31674657    0.46187984      0.00000000    0.00000000    0.00000000
    1   -6.39447512    7.03549760   -2.03374621      0.09283861    0.17623928   -0.22287263      0.00000000    0.00000000    0.00000000
    1   -6.19945513    8.87723657   -1.94179121     -0.18693329    0.13458158   -0.28231846      0.00000000    0.00000000    0.00000000
    8    3.04637327    9.47378784   -5.34131035     -0.25688425    0.08231462   -0.44183550      0.00000000    0.00000000    0.00000000
    1    2.52889722   -8.67290418   -5.40494629      0.04013671   -0.11568242    0.02856224      0.00000000    0.00000000    0.00000000
    1    2.98095421    8.63102987   -4.80704032      0.05832167    0.08876444    0.12066055      0.00000000    0.00000000    0.00000000
    8   -8.53396391   -5.07604765   -7.38740441      0.34012302   -0.00332930   -0.27075424      0.00000000    0.00000000    0.00000000
    1   -9.15079397   -4.35273468   -7.07707245     -0.12877067    0.14591415    0.28127246      0.00000000    0.00000000    0.00000000
    1   -8.61254798   -5.89138964   -7.96099643      0.02489596   -0.31467811    0.09272853      0.00000000    0.00000000    0.00000000
    8    5.99789171   -3.83361839    4.25147618      0.11917577    0.05647505   -0.13409902      0.00000000    0.00000000    0.00000000
    1    5.06143972   -3.48300233    4.26115916     -0.01362840   -0.04936467    0.04157862      0.00000000    0.00000000    0.00000000
    1    6.90194168   -3.46453433    4.03598117     -0.09244115   -0.06911697    0.06624410      0.00000000    0.00000000    0.00000000
    8    4.40040575   -8.55141005   -8.13997737      0.01874718    0.28683184   -0.19742874      0.00000000    0.00000000    0.00000000
    1    3.68225375   -9.24716507   -8.12779530     -0.00814597   -0.09087143    0.15115359      0.00000000    0.00000000    0.00000000
    1    5.07672072   -8.20431010   -7.49029533     -0.03614927   -0.18912427    0.04087119      0.00000000    0.00000000    0.00000000
    8   -9.18786996    2.20990934    2.12305072     -0.23280014   -0.13861235   -0.07461655      0.00000000    0.00000000    0.00000000
    1    9.43717098    3.13693332    2.12230472      0.09432458    0.05001017    0.20200762      0.00000000    0.00000000    0.00000000
    1    9.43784698    1.28262337    2.12728472      0.08189395   -0.06209578    0.07125362      0.00000000    0.00000000    0.00000000
    8    4.31141199   -7.29072333   -2.21897945     -0.52358017    0.07906477    0.18812613      0.00000000    0.00000000    0.00000000
    1    5.25309399   -7.56795833   -2.40961652      0.08306228   -0.09604263   -0.07775278      0.00000000    0.00000000    0.00000000
    1    3.53938103   -6.94977635   -2.75534751      0.03958528    0.00056795    0.14594553      0.00000000    0.00000000    0.00000000
    8    0.93225910    4.97279960    6.47731756      0.29767904    0.02607108    0.03025383      0.00000000    0.00000000    0.00000000
    1    0.05735113    4.49149954    6.42390859     -0.10420508   -0.08514217   -0.03755895      0.00000000    0.00000000    0.00000000
    1    1.84089408    4.77473953    6.84490658      0.01831306   -0.42957763   -0.16727114      0.00000000    0.00000000    0.00000000
    8    5.69474671    9.42991746    3.52541232      0.10615360   -0.24357235    0.05749207      0.00000000    0.00000000    0.00000000
    1    4.72318071   -9.49551946    3.75005831     -0.10073023    0.16841942   -0.01942768      0.00000000    0.00000000    0.00000000
    1    6.42571666   -8.93556748    3.27433232     -0.06881051    0.08684358   -0.03227735      0.00000000    0.00000000    0.00000000
    8    1.09092219    9.41188317    0.93316931      0.05853792   -0.08718324   -0.04210477      0.00000000    0.00000000    0.00000000
    1    0.99652412   -8.59265683    0.92239028     -0.01903250    0.05605426    0.03431937      0.00000000    0.00000000    0.00000000
    1    0.53027213    8.63311221    0.65182629     -0.02613894   -0.02118724   -0.01646162      0.00000000    0.00000000    0.00000000
    8    5.01272284   -0.27688499   -5.51156545     -0.32764540   -0.65886206   -0.85590534      0.00000000    0.00000000    0.00000000
    1    4.69464091    0.44973704   -4.90262245      0.19389471    0.09001548    0.28582852      0.00000000    0.00000000    0.00000000
    1    5.88350688   -0.53485693   -5.93007842     -0.38114116    0.23895321   -0.00011456      0.00000000    0.00000000    0.00000000
    8   -1.43483737   -5.58084903   -6.27389642     -0.11047309   -0.61207048    0.34010595      0.00000000    0.00000000    0.00000000
    1   -0.90104139   -6.42410403   -6.33675251      0.15279829   -0.13241434   -0.06485825      0.00000000    0.00000000    0.00000000
    1   -2.00476336   -5.04238106   -6.89454348      0.56656253    0.63098482   -0.31987149      0.00000000    0.00000000    0.00000000
    8    6.48631395   -4.56253417    8.03335112      0.21842227    0.01120582    0.43676941      0.00000000    0.00000000    0.00000000
    1    6.79687397   -3.83083322    8.64009117     -0.32833513    0.20971284   -0.47278352      0.00000000    0.00000000    0.00000000
    1    6.49788398   -5.56234817    8.04767918     -0.04312325   -0.07922181   -0.12475637      0.00000000    0.00000000    0.00000000
    8   -8.28985107   -9.11713722   -3.86238135      0.01571842   -0.52989747   -0.02618611      0.00000000    0.00000000    0.00000000
    1   -7.71657412   -8.98730724   -4.67137141     -0.09304009    0.56612226    0.07764142      0.00000000    0.00000000    0.00000000
    1   -9.21917408   -9.44023223   -3.68367543      0.29220523   -0.39226884   -0.25548814      0.00000000    0.00000000    0.00000000
    8   -6.02147022   -2.76551656   -7.68028655     -0.56607264    0.35611209   -0.18555364      0.00000000    0.00000000    0.00000000
    1   -6.55212315   -3.60947761   -7.60215754      0.69632627    0.37735332    1.03812871      0.00000000    0.00000000    0.00000000
    1   -5.05345819   -2.52985764   -7.76621355      0.57843316   -0.05972434    0.16310965      0.00000000    0.00000000    0.00000000
    8    3.42402131    1.28150489   -2.61577309      0.66989190    0.24144512   -0.42594778      0.00000000    0.00000000    0.00000000
    1    3.33527322    0.28642989   -2.57201709      0.09602247   -0.12213522    0.01313101      0.00000000    0.00000000    0.00000000
    1    2.79622824    2.05791184   -2.67086409      0.27019225   -0.09848915    0.24933529      0.00000000    0.00000000    0.00000000
    8   -7.58621413    7.73382236    2.94895940      0.20496876    0.12479407    0.13297234      0.00000000    0.00000000    0.00000000
    1   -7.61028019    8.17088936    2.04987140     -0.09249424    0.23075541   -0.04950345      0.00000000    0.00000000    0.00000000
    1   -8.26287819    7.43605038    3.62232736      0.18968347   -0.01969516    0.14811089      0.00000000    0.00000000    0.00000000
    8   -9.17624660    1.80690490   -7.21732742     -0.16523089   -0.11047051   -0.04544226      0.00000000    0.00000000    0.00000000
    1    9.41641633    0.91016993   -7.04438040      0.15449756    0.07564480    0.08015626      0.00000000    0.00000000    0.00000000
    1    9.49115233    2.74779588   -7.28109540     -0.01665603   -0.01970874   -0.04607919      0.00000000    0.00000000    0.00000000
    8    7.23904332    0.67035305    0.12858030      0.09763388    0.08999659    0.22976453      0.00000000    0.00000000    0.00000000
    1    6.33148432    0.80312314   -0.26975968     -0.02696912   -0.03845971   -0.12897669      0.00000000    0.00000000    0.00000000
    1    7.90415328    1.24171211    0.60935629     -0.04598579    0.02672323   -0.14488091      0.00000000    0.00000000    0.00000000
    8    1.69757719   -1.52563406   -7.52843391     -0.10732855    0.00882946   -0.06161121      0.00000000    0.00000000    0.00000000
    1    0.99022325   -2.15785912   -7.84451891      0.04916226    0.01020399    0.04044552      0.00000000    0.00000000    0.00000000
    1    2.66745220   -1.59043513   -7.29367891      0.08381751    0.01526651    0.08551115      0.00000000    0.00000000    0.00000000
    8    9.45560757   -3.72794665   -4.97902132      0.31104858   -0.54673152   -0.54016501      0.00000000    0.00000000    0.00000000
    1   -8.91929542   -3.72037458   -4.19853233     -0.31366525    0.06416822   -0.38285957      0.00000000    0.00000000    0.00000000
    1    9.14723661   -3.06382559   -5.66006329     -0.29362203    0.63972797    0.20064332      0.00000000    0.00000000    0.00000000
    8    2.68489735   -5.24386997   -4.37474369      0.11228483   -0.32050133    0.00342391      0.00000000    0.00000000    0.00000000
    1    2.02481141   -5.99400502   -4.41411168     -0.11488631    0.13063416   -0.01184243      0.00000000    0.00000000    0.00000000
    1    3.67772937   -5.16327603   -4.28666769     -0.11743963    0.29688645    0.02060599      0.00000000    0.00000000    0.00000000
    8   -6.25784515    2.61117504    3.20755418      0.08906944   -0.02824797   -0.40361226      0.00000000    0.00000000    0.00000000
    1   -5.72469020    3.40513104    3.49969225     -0.18472610   -0.06999465    0.01852349      0.00000000    0.00000000    0.00000000
    1   -7.07592216    2.13560808    3.53090225     -0.12961980    0.09697978   -0.12229219      0.00000000    0.00000000    0.00000000
    8   -4.45719984   -6.47043278   -5.86631987      0.35973955    0.30449555    0.06476621      0.00000000    0.00000000    0.00000000
    1   -5.41845983   -6.19485672   -5.86394387     -0.23032166   -0.04289423    0.23024150      0.00000000    0.00000000    0.00000000
    1   -3.57432587   -6.00086972   -5.86948287     -0.21338997   -1.45797204    1.13144697      0.00000000    0.00000000    0.00000000
    8   -6.92615570    5.39116189   -6.59644586     -0.16073217   -0.37241817   -0.25560679      0.00000000    0.00000000    0.00000000
    1   -6.06426072    4.96812683   -6.31690285      0.16403096   -0.18658821    0.07368886      0.00000000    0.00000000    0.00000000
    1   -7.85878468    5.07565483   -6.77144884     -0.03442565   -0.02507450   -0.04360381      0.00000000    0.00000000    0.00000000
    8   -1.95622577   -1.57724406   -3.53850870      0.15403467    0.03730759   -0.05568170      0.00000000    0.00000000    0.00000000
    1   -2.11494871   -0.59429205   -3.44588169      0.04683697    0.00239594    0.33496325      0.00000000    0.00000000    0.00000000
    1   -1.15827673   -2.17993601   -3.54076069      0.05250168   -0.09707933    0.00786109      0.00000000    0.00000000    0.00000000
    8   -3.47336248   -6.92573907   -8.15589185      0.59411768   -0.53268302   -0.16426328      0.00000000    0.00000000    0.00000000
    1   -4.31318854   -7.37479802   -8.46085881      0.20000313    0.38195702    0.10081405      0.00000000    0.00000000    0.00000000
    1   -3.23975857   -6.20132106   -7.50734384     -0.05311021   -0.72459403   -0.62672939      0.00000000    0.00000000    0.00000000
    8    4.88392697    9.13857100   -3.14357700      0.27120021   -0.48127540   -0.05945823      0.00000000    0.00000000    0.00000000
    1    5.31511794    8.33172197   -3.54735294      0.04631229    0.10086095    0.04152239      0.00000000    0.00000000    0.00000000
    1    4.32983796    9.32830794   -2.33305197     -0.05764671    0.20160582    0.16839468      0.00000000    0.00000000    0.00000000
    8   -4.97156324   -5.99992660   -3.27156441     -0.08991603    0.31790391    0.98977285      0.00000000    0.00000000    0.00000000
    1   -4.00718723   -5.82643166   -3.07195038      0.36109643    0.23388331   -0.11596876      0.00000000    0.00000000    0.00000000
    1   -5.65858719   -6.66461266   -2.97804237      0.58036197   -1.09154014    0.94348845      0.00000000    0.00000000    0.00000000
    8   -6.36980648   -3.80333943    2.69186838      0.90689640    0.40134485   -0.13978192      0.00000000    0.00000000    0.00000000
    1   -6.60534154   -4.01405546    3.64059837     -0.32484183   -0.37439504    0.58304176      0.00000000    0.00000000    0.00000000
    1   -6.83194454   -3.85828946    1.80678341     -0.22741550   -0.14739017   -0.38667036      0.00000000    0.00000000    0.00000000
    8    7.50160208   -3.44885382   -1.17982904      0.34891909    0.06030310    0.32525580      0.00000000    0.00000000    0.00000000
    1    6.64726011   -3.96307788   -1.10472804     -0.17420451   -0.13113801   -0.26508092      0.00000000    0.00000000    0.00000000
    1    8.47524705   -3.67345088   -1.21906703     -0.37789773    0.05018104    0.06682119      0.00000000    0.00000000    0.00000000
    8   -3.48276245   -4.20843390   -7.08973077      0.20273661   -0.19269302   -0.07412832      0.00000000    0.00000000    0.00000000
    1   -3.06125642   -3.84879696   -7.92217478     -0.14588001    0.21018114   -0.62207277      0.00000000    0.00000000    0.00000000
    1   -3.46622442   -5.07553692   -6.59190981     -0.55792502    0.82621426   -0.40211979      0.00000000    0.00000000    0.00000000
    8   -3.42446820   -8.60499998   -1.79219840      0.05613711   -0.11443335   -0.46762233      0.00000000    0.00000000    0.00000000
    1   -3.25636918   -7.72838001   -1.34137034      0.02751813    0.02771272    0.29514429      0.00000000    0.00000000    0.00000000
    1   -3.27869617    9.43137404   -1.56827434     -0.03892663   -0.00338553   -0.08175265      0.00000000    0.00000000    0.00000000
    8   -8.86540113    7.74418060   -2.35471106     -0.49188227   -0.64676931    0.47278018      0.00000000    0.00000000    0.00000000
    1   -8.34241317    7.16628855   -1.72821908     -0.11641934    0.10475315   -0.02541647      0.00000000    0.00000000    0.00000000
    1    9.35196586    7.61944554   -2.96454105      0.04335423   -0.05691954    0.00568740      0.00000000    0.00000000    0.00000000
    8    0.00034872    2.58309985    2.84732679      0.05174712    0.00115315   -0.03201486      0.00000000    0.00000000    0.00000000
    1    0.97691172    2.38215286    2.77042872     -0.02508493    0.00765860    0.03263000      0.00000000    0.00000000    0.00000000
    1   -0.73043022    2.85130685    2.21963873     -0.03011964    0.00122069    0.00967752      0.00000000    0.00000000    0.00000000
    8    0.82306260    1.17872000   -2.15233741     -0.70278020    0.26674584   -0.00647754      0.00000000    0.00000000    0.00000000
    1    1.05080766    0.23671200   -1.90592145     -0.03482328   -0.04175020    0.03505277      0.00000000    0.00000000    0.00000000
    1    1.20168866    1.87402296   -2.76320843     -0.26581458   -0.28812556    0.02458064      0.00000000    0.00000000    0.00000000
    8    4.83802414    3.71128539   -3.70988829      0.19317137    0.39513107   -0.14375661      0.00000000    0.00000000    0.00000000
    1    4.73042106    2.73185239   -3.88047031     -0.06761399   -0.38686899    0.21798399      0.00000000    0.00000000    0.00000000
    1    4.24544808    4.51618036   -3.74095031     -0.01734688   -0.01075615   -0.02063961      0.00000000    0.00000000    0.00000000
    8   -7.27614649   -6.70597499   -3.69169171     -0.03193158   -0.09969537   -0.01040117      0.00000000    0.00000000    0.00000000
    1   -8.14835447   -6.47227194   -3.26203868     -0.57767715    0.22882854    0.38224713      0.00000000    0.00000000    0.00000000
    1   -6.35246252   -6.32293294   -3.69902767      0.22823144    0.63429972   -0.88192897      0.00000000    0.00000000    0.00000000
    8   -7.27909052   -9.02092053   -8.99739464      0.40957789    0.17815847    0.38256649      0.00000000    0.00000000    0.00000000
    1   -6.92443458   -8.17729750   -9.40048961     -0.53707892    0.35554151   -0.48692041      0.00000000    0.00000000    0.00000000
    1   -8.11720355   -9.29617347   -8.52647164     -0.53046817   -0.25328112    0.21977270      0.00000000    0.00000000    0.00000000
    8   -7.83679857    2.80913625    9.09155615      0.04348147    0.48242718   -0.09838398      0.00000000    0.00000000    0.00000000
    1   -8.17553158    1.87415224    9.19659507     -0.02378259   -0.12153720    0.09527695      0.00000000    0.00000000    0.00000000
    1   -7.73703960    3.45750020    8.33681209     -0.03516568   -0.09008346   -0.06035399      0.00000000    0.00000000    0.00000000
    8   -7.32312450   -6.43239471    3.34687511     -0.03702034   -0.03404843   -0.46757099      0.00000000    0.00000000    0.00000000
    1   -7.28526756   -6.90796569    4.22571814     -0.06132863    0.23379056    0.39599879      0.00000000    0.00000000    0.00000000
    1   -7.98150454   -5.84730172    2.87341017      0.13515671    0.05321169    0.12614740      0.00000000    0.00000000    0.00000000
    8   -3.36599898   -4.19896871   -4.40969672      0.51415327   -0.10359929    0.31014145      0.00000000    0.00000000    0.00000000
    1   -3.31449598   -3.20968970   -4.27316279      0.10101105    0.36546396    0.20933810      0.00000000    0.00000000    0.00000000
    1   -3.31327798   -4.82096865   -5.19091676      0.11128381    0.91619580    0.87634700      0.00000000    0.00000000    0.00000000
    8   -3.10996001   -6.55166934    8.25532427      0.44702572   -0.02708438   -0.70133594      0.00000000    0.00000000    0.00000000
    1   -4.10905201   -6.58600340    8.23076424     -0.15993861    0.01075138   -0.05974447      0.00000000    0.00000000    0.00000000
    1   -2.36204007   -7.06547340    7.83510124     -0.15866777    0.10228878   -0.20056755      0.00000000    0.00000000    0.00000000
    8    5.63698409    6.11355476    4.04893786      0.02604980   -0.29419589    0.03911439      0.00000000    0.00000000    0.00000000
    1    5.20726505    6.78503581    3.44526492      0.05256912    0.21906397   -0.01381963      0.00000000    0.00000000    0.00000000
    1    5.64079604    5.92823582    5.03159288     -0.00267954    0.10609914   -0.01310216      0.00000000    0.00000000    0.00000000
    8   -5.94651050    1.03678336   -8.62521869     -0.02535622   -0.11245710    0.12415700      0.00000000    0.00000000    0.00000000
    1   -5.91193956    2.00853736   -8.85859669     -0.14675170    0.22786054   -0.07413067      0.00000000    0.00000000    0.00000000
    1   -6.66341755    0.37407140   -8.40882669     -0.07683602    0.05576755    0.22344782      0.00000000    0.00000000    0.00000000
    8   -5.06937369   -9.37871621    8.34426075      0.51104731   -0.35699143   -0.56667366      0.00000000    0.00000000    0.00000000
    1   -4.59587872   -8.84512315    9.04500774      0.38332822   -0.29754112   -0.54744504      0.00000000    0.00000000    0.00000000
    1   -5.69342869   -9.18040913    7.58848577     -0.00112980   -0.03732334   -0.12833356      0.00000000    0.00000000    0.00000000
    8   -6.10652979   -1.74476949    4.56494789     -0.27503960    0.47090788    0.29620084      0.00000000    0.00000000    0.00000000
    1   -6.28626472   -0.77059948    4.42836889      0.23521066    0.13037960    0.00471566      0.00000000    0.00000000    0.00000000
    1   -5.29530774   -2.31585445    4.69044287      0.16166561    0.16335319   -0.21874033      0.00000000    0.00000000    0.00000000
    8   -2.08696551   -1.59613753    7.78387369     -0.06343289   -0.29665723    0.25521820      0.00000000    0.00000000    0.00000000
    1   -1.96869843   -0.76210453    8.32273169      0.05120042    0.28063863   -0.09406775      0.00000000    0.00000000    0.00000000
    1   -1.48430045   -2.23564149    7.30659369     -0.01111048    0.05422617   -0.10938335      0.00000000    0.00000000    0.00000000
    8    6.27334550    6.95670590   -8.83367055     -0.41633980    0.32900549    0.07383148      0.00000000    0.00000000    0.00000000
    1    7.12674448    6.55117485   -8.50622350      0.20346893   -0.19636914   -0.22090671      0.00000000    0.00000000    0.00000000
    1    5.30753252    6.90257585   -8.58021149      0.05023691   -0.09602798    0.01306178      0.00000000    0.00000000    0.00000000
    8    8.08161540   -8.65038065   -4.27459363     -0.47573995   -0.26780811    0.02601889      0.00000000    0.00000000    0.00000000
    1    8.72282440   -8.49043858   -3.52410365      0.02509921    0.51293462    0.09293200      0.00000000    0.00000000    0.00000000
    1    7.57800543   -8.08076959   -4.92412160     -0.00019629    0.07559741   -0.02135974      0.00000000    0.00000000    0.00000000
    8    8.00465793   -4.46065695   -8.25693858      0.04417795    0.43971319   -0.32050500      0.00000000    0.00000000    0.00000000
    1    7.54996095   -4.26585904   -9.12600260      0.07197249   -0.27775249    0.17703771      0.00000000    0.00000000    0.00000000
    1    8.43941092   -5.25627001   -7.83508963      0.03947038   -0.34593111   -0.18878245      0.00000000    0.00000000    0.00000000
    8   -3.28342083   -6.47618104    4.98082928     -0.08849532    0.03650364    0.01061228      0.00000000    0.00000000    0.00000000
    1   -3.60167190   -7.42393104    4.95953728      0.05882579   -0.08064108    0.02133103      0.00000000    0.00000000    0.00000000
    1   -3.71295190   -5.57317707    4.98818728      0.02725299   -0.09649565   -0.04395540      0.00000000    0.00000000    0.00000000
    8   -4.81970599    8.10702935   -8.38935459      0.30620198   -0.59822632    0.38930830      0.00000000    0.00000000    0.00000000
    1   -5.44536503    7.38504440   -8.09396156      0.43922925   -0.28645156   -0.94598494      0.00000000    0.00000000    0.00000000
    1   -4.67067504    9.06854336   -8.15860353      0.04688262   -0.11284503    0.01208722      0.00000000    0.00000000    0.00000000
    8   -2.93969890   -5.44839388    0.94728347      0.40560332    0.68009006   -0.26070510      0.00000000    0.00000000    0.00000000
    1   -3.75714194   -6.02254785    0.90146448     -0.19869831   -0.55434287    0.13754711      0.00000000    0.00000000    0.00000000
    1   -2.74800897   -4.48237788    1.12059247     -0.02089662   -0.16472826    0.17428830      0.00000000    0.00000000    0.00000000
    8   -8.93648649   -2.63567001    3.25294006     -0.64662639   -0.11289720    0.10268074      0.00000000    0.00000000    0.00000000
    1   -8.05157651   -2.18721895    3.37860807      0.49255783    0.00939492    0.05047832      0.00000000    0.00000000    0.00000000
    1    9.10446754   -2.38295195    3.38073107      0.11816973    0.09879989   -0.04267576      0.00000000    0.00000000    0.00000000
    8   -0.17754403   -6.19838027    6.57808005      0.15177457    0.04793660    0.22250900      0.00000000    0.00000000    0.00000000
    1   -0.31273102   -7.10142024    6.98576911      0.05847122    0.00525311   -0.15213010      0.00000000    0.00000000    0.00000000
    1    0.01108397   -5.27687229    6.91750411     -0.07364736   -0.08274917   -0.05940645      0.00000000    0.00000000    0.00000000
    8   -8.90697998    8.99483881   -7.18727515     -0.40303428    0.34319501   -0.21000908      0.00000000    0.00000000    0.00000000
    1    9.16466904    8.62329275   -7.17800813     -0.24217116   -0.38930834    0.32055081      0.00000000    0.00000000    0.00000000
    1   -7.98294899    8.62429074   -7.09331414      0.31679901   -0.69650738    0.26252965      0.00000000    0.00000000    0.00000000
    8   -1.37681451    5.10689128   -6.42170047      0.26027897    0.36310788   -0.53296885      0.00000000    0.00000000    0.00000000
    1   -0.91570657    4.36489527   -6.90830851     -0.12190419   -0.05029615    0.06527847      0.00000000    0.00000000    0.00000000
    1   -2.25743254    5.57538023   -6.49238952     -0.05217076   -0.23473793    0.23570973      0.00000000    0.00000000    0.00000000
    8    0.04185672   -2.53313514    2.90585191      0.00943431    0.11176612   -0.08164449      0.00000000    0.00000000    0.00000000
    1   -0.11334022   -2.45938316    1.92074190      0.01731558   -0.04128958    0.05834290      0.00000000    0.00000000    0.00000000
    1    0.80333276   -2.80125216    3.49596486     -0.01496494   -0.07534985    0.00794649      0.00000000    0.00000000    0.00000000
    8   -6.98174190   -4.27430642    5.31684795      0.13167683   -0.25563415    0.33432491      0.00000000    0.00000000    0.00000000
    1   -6.08729293   -3.92604435    5.59727595     -0.11229345    0.10804911    0.12050722      0.00000000    0.00000000    0.00000000
    1   -7.90111487   -3.89488135    5.21313095     -0.11831621    0.11232774   -0.06977909      0.00000000    0.00000000    0.00000000
    8   -3.34168694    1.34391001    8.31084120      0.29874557   -0.58785616   -0.31225211      0.00000000    0.00000000    0.00000000
    1   -3.33328799    2.28121100    8.65921326     -0.18227384    0.21429069    0.35556668      0.00000000    0.00000000    0.00000000
    1   -3.79888597    0.48922706    8.55671726      0.20368858    0.25780814   -0.01593463      0.00000000    0.00000000    0.00000000
    8    6.60135407   -4.88371619   -5.98728828     -0.51057102   -0.30717198   -0.12544143      0.00000000    0.00000000    0.00000000
    1    7.54871307   -4.79731122   -6.29552834     -0.07132254    0.31112319    0.00634666      0.00000000    0.00000000    0.00000000
    1    5.74628310   -5.22511822   -6.37749934      0.11709135    0.13506479   -0.08809100      0.00000000    0.00000000    0.00000000
    8   -2.56347492    6.42613855    0.81416901     -0.47301923   -0.15257618    0.12202474      0.00000000    0.00000000    0.00000000
    1   -3.31660386    7.00993660    0.51094698     -0.03172168    0.01104124   -0.03531836      0.00000000    0.00000000    0.00000000
    1   -1.56524591    6.48502861    0.82031397      0.35933037    0.29817196    0.07555329      0.00000000    0.00000000    0.00000000
    8   -5.04176133    2.97214604    5.67005964     -0.04349678    0.29360918    0.29222723      0.00000000    0.00000000    0.00000000
    1   -4.39954435    3.26198011    4.96046764      0.16154249   -0.14961511    0.10830410      0.00000000    0.00000000    0.00000000
    1   -5.77943932    3.40119610    6.19131961      0.11623736   -0.05635846   -0.01844147      0.00000000    0.00000000    0.00000000
    8   -7.55119641   -7.42120741   -6.27274846      0.07972136   -0.92403624   -0.71522873      0.00000000    0.00000000    0.00000000
    1   -7.29725237   -6.46946538   -6.10051050     -0.26753260    0.19434552    0.06840628      0.00000000    0.00000000    0.00000000
    1   -7.36222636   -8.09874934   -6.98351949      0.00999143    0.12700196   -0.08297729      0.00000000    0.00000000    0.00000000
    8   -8.70437572    9.48981159    7.36594504     -0.26945670    0.08945354    0.17244774      0.00000000    0.00000000    0.00000000
    1   -8.25105977   -8.71156037    7.76175402      0.24672446   -0.14100730   -0.13196392      0.00000000    0.00000000    0.00000000
    1    9.39050826    9.28850666    6.99150205     -0.02541340   -0.12338949   -0.09994909      0.00000000    0.00000000    0.00000000
    8    8.06000276   -1.63877650   -6.60710813     -0.07828234    0.10312078    0.22493896      0.00000000    0.00000000    0.00000000