 BEGIN_INFO
   #
   # This is a XCRYSDEN-Structure-File
   # aimed for Visualization of Fermi Surface
   #
   # Case: Tight-binding calculation
   #
   # Launch as: xcrysden --xsf HICOLM.XSF
   #
 END_INFO
 # estrutura final
CRYSTAL
PRIMVEC
      19.00000000       0.00000000       0.00000000
       0.00000000      19.00000000       0.00000000
       0.00000000       0.00000000      19.00000000
PRIMCOORD
  300    1
    8   -4.12695827    2.98423255   -8.53832016      5.88069663    0.96386501   -5.08963436      0.00000000    0.00000000    0.00000000
    1   -4.69984031    3.79564154   -8.65403513     -1.59877695   -3.12555197    3.97550493      0.00000000    0.00000000    0.00000000
    1   -4.12047531    2.18876456   -7.93238714     -4.05661339    2.93242741    1.22846991      0.00000000    0.00000000    0.00000000
    8  177.46878746  114.80414570   72.10524571     -7.32851929   -0.27372936    0.79323093      0.00000000    0.00000000    0.00000000
    1  177.84679151  113.92636872   71.81098571      3.64104126    3.69844010    0.61781838      0.00000000    0.00000000    0.00000000
    1  177.83517051  115.70972170   72.31893271      3.68747803   -3.42471074   -1.41104931      0.00000000    0.00000000    0.00000000
    8   -7.13132606   -8.52774521    1.73298299     -5.41552906   -0.22392035    4.31634496      0.00000000    0.00000000    0.00000000
    1   -7.40267902   -8.13638922    0.85367897      4.73044277   -1.99771680    0.05828458      0.00000000    0.00000000    0.00000000
    1   -6.32714503   -9.00141820    2.09200195      0.46628150    1.54721620   -4.85821364      0.00000000    0.00000000    0.00000000
    8    6.23056156   -5.52525284   -3.46716565      0.45151299    6.50911560    3.32864070      0.00000000    0.00000000    0.00000000
    1    7.01744054   -6.09227587   -3.22370468     -3.56735147   -2.42167949   -2.69525915      0.00000000    0.00000000    0.00000000
    1    5.36801957   -5.66277788   -3.95406767      3.41801569   -4.27022536    0.33850828      0.00000000    0.00000000    0.00000000
    8    7.00462768    1.47473470    5.51146934     -1.00600653   -6.85963525    2.78483136      0.00000000    0.00000000    0.00000000
    1    7.67517168    1.99658273    6.03873731     -1.97001720    2.71177696   -4.08844535      0.00000000    0.00000000    0.00000000
    1    6.44064770    1.63879874    4.70216333      2.97056698    4.14965827    1.28916116      0.00000000    0.00000000    0.00000000
    8   -9.32384156    5.70471671    2.41328549      3.12198335   -4.39199929    5.23411236      0.00000000    0.00000000    0.00000000
    1    9.39393842    5.11156275    1.65930547     -1.39436782    5.23079903   -0.74671663      0.00000000    0.00000000    0.00000000
    1   -9.40598858    6.67672373    2.63333245     -2.25252293   -1.30400743   -4.82837347      0.00000000    0.00000000    0.00000000
    8   -5.98147600    7.95814411   -2.11639449      7.67713935   -1.02865719   -1.05281641      0.00000000    0.00000000    0.00000000
    1   -6.44373904    7.07200013   -2.08431348     -3.07106742    4.20373776    0.70893018      0.00000000    0.00000000    0.00000000
    1   -6.24871905    8.91373911   -1.99235848     -4.18637943   -3.19406466    0.29879498      0.00000000    0.00000000    0.00000000
    8    3.07657426    9.46538042   -5.28489059      5.46725458   -0.03601373   -5.23205303      0.00000000    0.00000000    0.00000000
    1    2.55909823   -8.68131159   -5.34852655     -1.91777185   -3.45291249    3.54947026      0.00000000    0.00000000    0.00000000
    1    3.01115522    8.62262244   -4.75062057     -3.71251069    3.54840807    1.25191534      0.00000000    0.00000000    0.00000000
    8   -8.60111358   -5.05811434   -7.36361283      7.77677670    0.45133986    2.44827083      0.00000000    0.00000000    0.00000000
    1    9.78205638   -4.33480136   -7.05328086     -2.37952993   -2.81914593   -3.94901823      0.00000000    0.00000000    0.00000000
    1   -8.67969762   -5.87345634   -7.93720484     -4.44774784    2.34912931    0.55553139      0.00000000    0.00000000    0.00000000
    8    5.98474540   -3.83625985    4.26546260      0.43940754   -7.03220042    1.88333284      0.00000000    0.00000000    0.00000000
    1    5.04829341   -3.48564381    4.27514559      3.50557640    3.52839743   -1.41903904      0.00000000    0.00000000    0.00000000
    1    6.88879538   -3.46717581    4.04996759     -3.92576537    3.44438307   -0.49435769      0.00000000    0.00000000    0.00000000
    8    4.39849387   -8.58393387   -8.11544575      0.42424151    3.71247397   -6.71572114      0.00000000    0.00000000    0.00000000
    1    3.68034187   -9.27968888   -8.10326371      2.57191810    0.27462714    4.67922833      0.00000000    0.00000000    0.00000000
    1    5.07480885   -8.23683390   -7.46576373     -3.02779650   -3.98147154    2.03385044      0.00000000    0.00000000    0.00000000
    8   -9.16562600    2.22493865    2.13081770      7.12811007   -0.13740748   -0.10172013      0.00000000    0.00000000    0.00000000
    1    9.45941496    3.15196263    2.13007170     -3.59116482   -3.64766387    0.21615921      0.00000000    0.00000000    0.00000000
    1    9.46009096    1.29765267    2.13505170     -3.60436901    3.66089143    0.08490119      0.00000000    0.00000000    0.00000000
    8    4.37077061   -7.31330119   -2.24906201     -2.22408563   -0.22471855    7.47521071      0.00000000    0.00000000    0.00000000
    1    5.31245261   -7.59053619   -2.43969905     -2.52286915    1.41442596   -4.37418457      0.00000000    0.00000000    0.00000000
    1    3.59873964   -6.97235420   -2.78543005      4.31727404   -0.93559744   -2.74860326      0.00000000    0.00000000    0.00000000
    8    0.90151351    4.97461229    6.48163200     -0.07107139    6.53296840   -3.20574664      0.00000000    0.00000000    0.00000000
    1    0.02660553    4.49331225    6.42822302      3.61430323   -2.86953568    2.34787234      0.00000000    0.00000000    0.00000000
    1    1.81014850    4.77655224    6.84922102     -3.34439446   -4.39619133    0.53141183      0.00000000    0.00000000    0.00000000
    8    5.68197828    9.45961272    3.51925070      2.48351675   -7.22562669    0.32472822      0.00000000    0.00000000    0.00000000
    1    4.71041228   -9.46582423    3.74389670      2.11487804    4.77790681   -1.09834564      0.00000000    0.00000000    0.00000000
    1    6.41294825   -8.90587224    3.26817070     -4.65376712    2.45869335    0.79021063      0.00000000    0.00000000    0.00000000
    8    1.08167058    9.42261997    0.93678095      6.50778716   -2.22363800    2.82980443      0.00000000    0.00000000    0.00000000
    1    0.98727254   -8.58192003    0.92600193     -4.17688308   -2.42338316   -1.94380418      0.00000000    0.00000000    0.00000000
    1    0.52102054    8.64384900    0.65543793     -2.31800864    4.59937942   -0.91000276      0.00000000    0.00000000    0.00000000
    8    5.15771557   -0.12274281   -5.29738028     -5.31078750   -4.48583621   -1.94246869      0.00000000    0.00000000    0.00000000
    1    4.83963362    0.60387921   -4.68843728      5.10954687    0.12444945   -1.16226327      0.00000000    0.00000000    0.00000000
    1    6.02849960   -0.38071477   -5.71589326      0.10828117    4.40784614    3.03555643      0.00000000    0.00000000    0.00000000
    8   -1.43256717   -5.51005015   -6.31650128      0.44274626    2.26541491    7.11443468      0.00000000    0.00000000    0.00000000
    1   -0.89877118   -6.35330515   -6.37935734     -2.23144249    1.14105595   -4.54793135      0.00000000    0.00000000    0.00000000
    1   -2.00249316   -4.97158217   -6.93714832      2.49196412   -3.66911723   -2.52597802      0.00000000    0.00000000    0.00000000
    8    6.46473092   -4.56356029    7.98824479     -2.96987294    2.62406018   -5.67699026      0.00000000    0.00000000    0.00000000
    1    6.77529093   -3.83185932    8.59498483      0.72123106   -4.58740126    1.47255907      0.00000000    0.00000000    0.00000000
    1    6.47630094   -5.56337429    8.00257283      2.14506702    2.07453219    4.10806627      0.00000000    0.00000000    0.00000000
    8   -8.30266258   -9.06024953   -3.86048734      3.75450492    1.41794464    6.13803183      0.00000000    0.00000000    0.00000000
    1   -7.72938561   -8.93041954   -4.66947738     -4.82644241   -1.28112441   -1.08164447      0.00000000    0.00000000    0.00000000
    1   -9.23198558   -9.38334453   -3.68178140      1.56723734   -0.46545429   -5.41152423      0.00000000    0.00000000    0.00000000
    8   -5.95129564   -2.82351342   -7.68498274     -4.96116515    6.66733018    0.44126901      0.00000000    0.00000000    0.00000000
    1   -6.48194859   -3.66747445   -7.60685373      5.97024785   -0.26966949    0.90547075      0.00000000    0.00000000    0.00000000
    1   -4.98328362   -2.58785447   -7.77090974     -0.24631138   -5.21055820    0.39171856      0.00000000    0.00000000    0.00000000
    8 -186.83041527 -131.75651772  -59.53719101      7.05441394    2.15285718    0.11159180      0.00000000    0.00000000    0.00000000
    1 -186.91916333 -113.75159272  -59.49343501     -4.60374708    2.46140872   -0.25320414      0.00000000    0.00000000    0.00000000
    1 -187.45820831 -130.98011075  -59.59228201     -2.45066685   -4.61426590    0.14161234      0.00000000    0.00000000    0.00000000
    8   -7.61689787    7.70800337    2.93286814      7.23003409   -0.96619806    2.38498481      0.00000000    0.00000000    0.00000000
    1   -7.64096391    8.14507037    2.03378014     -4.80116455   -0.58671678    1.99253626      0.00000000    0.00000000    0.00000000
    1   -8.29356191    7.41023138    3.60623612     -1.91469511    2.11017130   -4.06707698      0.00000000    0.00000000    0.00000000
    8   -9.16093435    1.81993905   -7.21283787      7.10207883   -0.55173192   -1.12557675      0.00000000    0.00000000    0.00000000
    1    9.43172860    0.92320407   -7.03989086     -3.34040245    4.11454257    0.09944602      0.00000000    0.00000000    0.00000000
    1   -9.49353540    2.76083004   -7.27660586     -3.79540134   -3.50183049    0.96917624      0.00000000    0.00000000    0.00000000
    8    7.22731324    0.66338832    0.10452076      2.39183420   -6.82852770   -0.66083955      0.00000000    0.00000000    0.00000000
    1    6.31975424    0.79615838   -0.29381922      1.98760990    4.28466720    2.13589041      0.00000000    0.00000000    0.00000000
    1    7.89242322    1.23474736    0.58529676     -4.34926523    2.61713142   -1.47361591      0.00000000    0.00000000    0.00000000
    8    1.70955558   -1.52975045   -7.52196666     -2.65230432    6.88848887    0.74100995      0.00000000    0.00000000    0.00000000
    1    1.00220162   -2.16197549   -7.83805166      4.67078464   -2.29335083    0.74236072      0.00000000    0.00000000    0.00000000
    1    2.67943059   -1.59455149   -7.28721166     -2.00694677   -4.57126654   -1.43215225      0.00000000    0.00000000    0.00000000
    8   -9.58167527   -3.67689495   -4.89352638     -2.87995835   -5.79711310   -1.66722505      0.00000000    0.00000000    0.00000000
    1   -8.95657827   -3.66932291   -4.11303739     -0.70223389    4.71847211   -2.81328741      0.00000000    0.00000000    0.00000000
    1    9.10995375   -3.01277391   -5.57456836      3.09855613    2.62338595    3.60172950      0.00000000    0.00000000    0.00000000
    8    2.67401643   -5.21222689   -4.37412336     -3.16214621    6.27031019   -0.50005270      0.00000000    0.00000000    0.00000000
    1    2.01393047   -5.96236192   -4.41349136      4.82717939   -1.50446338    0.49291807      0.00000000    0.00000000    0.00000000
    1    3.66684844   -5.13163293   -4.28604736     -1.77834340   -4.66084044    0.03288802      0.00000000    0.00000000    0.00000000
    8   -6.26296944    2.61624344    3.26523015      2.76747970   -3.17626420   -6.70274564      0.00000000    0.00000000    0.00000000
    1   -5.72981447    3.41019944    3.55736820     -4.30105823   -1.05223741    3.12324641      0.00000000    0.00000000    0.00000000
    1   -7.08104645    2.14067647    3.58857820      1.18025013    4.19840374    2.84540413      0.00000000    0.00000000    0.00000000
    8   -4.49626321   -6.49798631   -5.88037492      1.12238264   -7.11071161    0.21278856      0.00000000    0.00000000    0.00000000
    1   -5.45752320   -6.22241027   -5.87799892      3.08452492    4.00499210    0.20134173      0.00000000    0.00000000    0.00000000
    1   -3.61338923   -6.02842327   -5.88353792     -4.31317423    1.79003746    1.11396907      0.00000000    0.00000000    0.00000000
    8   -6.90481154    5.44683471   -6.56612576      0.44406803    6.48611207   -1.34378344      0.00000000    0.00000000    0.00000000
    1   -6.04291655    5.02379967   -6.28658276     -3.81942789   -3.56849574   -0.29070505      0.00000000    0.00000000    0.00000000
    1   -7.83744053    5.13132767   -6.74112875      3.20767823   -3.85944313    1.38799802      0.00000000    0.00000000    0.00000000
    8   -1.97614466   -1.57907361   -3.53803118     -6.02556776   -3.72965049   -0.82164202      0.00000000    0.00000000    0.00000000
    1   -2.13486762   -0.59612160   -3.44540417      5.12253857   -1.30148865    0.62963463      0.00000000    0.00000000    0.00000000
    1   -1.17819564   -2.18176558   -3.54028317      1.30137603    4.94237840    0.64710709      0.00000000    0.00000000    0.00000000
    8   -3.56525503   -6.85913237   -8.13123332      7.12865862   -3.42377118   -3.64070504      0.00000000    0.00000000    0.00000000
    1   -4.40508107   -7.30819133   -8.43620029     -0.65103412    4.17778623    3.68108292      0.00000000    0.00000000    0.00000000
    1   -3.33165109   -6.13471436   -7.48268531     -5.15032761   -1.77334818   -0.90502276      0.00000000    0.00000000    0.00000000
    8    4.84612683    9.20217865   -3.13565716      1.75043387    5.27251177   -4.14188716      0.00000000    0.00000000    0.00000000
    1    5.27731781    8.39532963   -3.53943312     -2.53065856   -0.94177388    4.46567647      0.00000000    0.00000000    0.00000000
    1    4.29203782    9.39191561   -2.32513214      1.28194901   -4.77891199   -0.22491438      0.00000000    0.00000000    0.00000000
    8   -4.97716385   -6.03468690   -3.40792243     -2.44891992    5.08621414   -3.17980253      0.00000000    0.00000000    0.00000000
    1   -4.01278784   -5.86119194   -3.20830841     -1.55510868   -3.85769259    2.53687790      0.00000000    0.00000000    0.00000000
    1   -5.66418782   -6.69937294   -3.11440040      5.36435226   -2.10286733    3.22491895      0.00000000    0.00000000    0.00000000
    8   -6.47736673   -3.84670222    2.70439464      7.90910882    2.95242087   -0.70450656      0.00000000    0.00000000    0.00000000
    1   -6.71290177   -4.05741824    3.65312463     -4.16216460   -1.37179465   -2.61704691      0.00000000    0.00000000    0.00000000
    1   -6.93950477   -3.90165224    1.81930966     -3.03606012   -1.72543010    3.57014614      0.00000000    0.00000000    0.00000000
    8    7.46460533   -3.45868766   -1.21676288     -0.84607508    7.34165139    0.02968825      0.00000000    0.00000000    0.00000000
    1    6.61026335   -3.97291170   -1.14166188      4.06810455   -3.18968662   -0.32550518      0.00000000    0.00000000    0.00000000
    1    8.43825031   -3.68328470   -1.25600087     -3.42259184   -4.17850791    0.42925276      0.00000000    0.00000000    0.00000000
    8   -3.50355068   -4.18948474   -7.06723582     -4.07479369    4.82327801    2.84887373      0.00000000    0.00000000    0.00000000
    1   -3.08204466   -3.82984778   -7.89967983      1.21261870   -4.68825954    0.37246597      0.00000000    0.00000000    0.00000000
    1   -3.48701266   -5.05658775   -6.56941485      2.54308547    0.82491511   -4.64750843      0.00000000    0.00000000    0.00000000
    8   -3.43418355   -8.58803964   -1.72427020     -2.92209717    0.63170765   -7.42653531      0.00000000    0.00000000    0.00000000
    1   -3.26608453   -7.71141966   -1.27344216      1.51345961   -4.06261719    3.21189719      0.00000000    0.00000000    0.00000000
    1   -3.28841153    9.44833437   -1.50034616      1.57454913    3.26601631    3.71429231      0.00000000    0.00000000    0.00000000
    8   -8.80416225    7.82434081   -2.41366655      1.87433047    5.99100744    0.48144723      0.00000000    0.00000000    0.00000000
    1   -8.28117428    7.24644878   -1.78717457     -4.01962763   -2.42306914   -2.41640571      0.00000000    0.00000000    0.00000000
    1    9.41320474    7.69960577   -3.02349655      1.37862308   -4.40496243    2.43444463      0.00000000    0.00000000    0.00000000
    8   -0.00403345    2.58356322    2.84756084     -2.36427217   -0.66697446    6.91275559      0.00000000    0.00000000    0.00000000
    1    0.97252955    2.38261623    2.77066279     -2.22972444    1.27703893   -4.53897966      0.00000000    0.00000000    0.00000000
    1   -0.73481241    2.85177022    2.21987280      4.58997620   -0.60134783   -2.36298040      0.00000000    0.00000000    0.00000000
    8    1.07768056    1.15250789   -2.18241305     -5.97183595    2.59763566    3.53851689      0.00000000    0.00000000    0.00000000
    1    1.30542560    0.21049989   -1.93599708      3.28873188    2.00057047   -3.51643115      0.00000000    0.00000000    0.00000000
    1    1.45630660    1.84781087   -2.79328406      2.70576631   -4.59278481   -0.05617747      0.00000000    0.00000000    0.00000000
    8    4.81301809    3.67115756   -3.69536482      6.99875193    1.62238729    1.92247970      0.00000000    0.00000000    0.00000000
    1    4.70541504    2.69172456   -3.86594683     -4.45997482    2.80730471   -0.64571182      0.00000000    0.00000000    0.00000000
    1    4.22044205    4.47605254   -3.72642683     -2.53431648   -4.36324733   -1.28924819      0.00000000    0.00000000    0.00000000
    8   -7.27544586   -6.68544884   -3.71669396     -0.50209644   -6.28433428   -3.41053508      0.00000000    0.00000000    0.00000000
    1   -8.14765385   -6.45174581   -3.28704094      3.16602427    3.63419040    1.51344163      0.00000000    0.00000000    0.00000000
    1   -6.35176188   -6.30240681   -3.72402993     -3.24923631    3.54479850    1.95681281      0.00000000    0.00000000    0.00000000
    8   -7.31795058   -9.04434351   -9.03742784      5.00387371   -5.26665071   -0.30616211      0.00000000    0.00000000    0.00000000
    1   -6.96329462   -8.20072049   -9.44052282     -5.02230828    0.88676007    1.62765887      0.00000000    0.00000000    0.00000000
    1   -8.15606360   -9.31959647   -8.56650484     -0.45669565    4.80055990   -1.14932170      0.00000000    0.00000000    0.00000000
    8   -7.84099707    2.75327731    9.10176617      2.37140823    3.34224664    6.24654181      0.00000000    0.00000000    0.00000000
    1   -8.17973008    1.81829331    9.20680512     -0.32257330    1.64506458   -4.81489048      0.00000000    0.00000000    0.00000000
    1   -7.74123809    3.40164128    8.34702213     -2.08904799   -4.66582396   -1.53937819      0.00000000    0.00000000    0.00000000
    8   -7.32541182   -6.43183413    3.40641568      6.16530634   -1.01332590   -4.62379498      0.00000000    0.00000000    0.00000000
    1   -7.28755486   -6.90740511    4.28525870     -4.54446990    2.92058220   -0.25644852      0.00000000    0.00000000    0.00000000
    1   -7.98379185   -5.84674113    2.93295072     -1.49377392   -1.52230325    4.82604872      0.00000000    0.00000000    0.00000000
    8   -3.42795371   -4.19012410   -4.45622160     -0.37671442   -3.63995983    6.89782151      0.00000000    0.00000000    0.00000000
    1   -3.37645071   -3.20084509   -4.31968765      0.62107708   -1.07625245   -4.79115508      0.00000000    0.00000000    0.00000000
    1   -3.37523271   -4.81212406   -5.23744163      0.58235719    6.02951326   -0.41359756      0.00000000    0.00000000    0.00000000
    8   -3.17108636   -6.55551818    8.35304978      3.18225506    5.46252810    3.15447764      0.00000000    0.00000000    0.00000000
    1   -4.17017836   -6.58985222    8.32848976      2.03137070   -3.67506909   -2.99331745      0.00000000    0.00000000    0.00000000
    1   -2.42316640   -7.06932222    7.93282676     -4.88452801   -1.65241795   -1.57528949      0.00000000    0.00000000    0.00000000
    8    5.63221164    6.14777174    4.04635611      4.21948157   -5.08489024   -3.69331137      0.00000000    0.00000000    0.00000000
    1    5.20249261    6.81925278    3.44268315     -1.17798844    0.90421708    5.02002786      0.00000000    0.00000000    0.00000000
    1    5.63602361    5.96245278    5.02901113     -2.96560430    4.20992257   -1.31570890      0.00000000    0.00000000    0.00000000
    8   -5.93489506    1.04374720   -8.64541979      6.43139056   -2.99139772    0.41726595      0.00000000    0.00000000    0.00000000
    1   -5.90032410    2.01550120   -8.87879779     -4.98245081   -1.51049883    0.74865314      0.00000000    0.00000000    0.00000000
    1   -6.65180209    0.38103523   -8.42902779     -1.93231762    4.83972202   -0.75869816      0.00000000    0.00000000    0.00000000
    8   -5.13908401   -9.33041859    8.43530677      2.28817049   -7.65374590   -0.69358367      0.00000000    0.00000000    0.00000000
    1   -4.66558903   -8.79682555    9.13605377     -2.49876734    2.59493544   -3.83483314      0.00000000    0.00000000    0.00000000
    1   -5.76313901   -9.13211154    7.67953179      1.46950870    4.19624874    2.51994163      0.00000000    0.00000000    0.00000000
    8   -6.08031377   -1.80787023    4.53249999     -6.34888553   -3.19217071    0.40289166      0.00000000    0.00000000    0.00000000
    1   -6.26004873   -0.83370023    4.39592099      5.32629948   -0.96764679    0.48031834      0.00000000    0.00000000    0.00000000
    1   -5.26909174   -2.37895521    4.65799498      1.28277014    5.23179259   -0.82043350      0.00000000    0.00000000    0.00000000
    8   -2.07620351   -1.56289179    7.75654119     -7.17197716   -2.20771367   -0.35495141      0.00000000    0.00000000    0.00000000
    1   -1.95793645   -0.72885879    8.29539919      4.55874398   -1.70765842   -1.81337000      0.00000000    0.00000000    0.00000000
    1   -1.47353847   -2.20239576    7.27926119      2.57129805    3.95516083    2.22809079      0.00000000    0.00000000    0.00000000
    8    6.32324004    6.91867874   -8.84112115      0.57895307    4.85472863   -5.60242226      0.00000000    0.00000000    0.00000000
    1    7.17663903    6.51314771   -8.51367411     -3.97375244   -1.73052097    2.46335249      0.00000000    0.00000000    0.00000000
    1    5.35742706    6.86454871   -8.58766211      3.13455567   -3.05854805    3.01891416      0.00000000    0.00000000    0.00000000
    8    8.14870888   -8.61718978   -4.27554456     -2.15249150   -7.46525899   -1.00339488      0.00000000    0.00000000    0.00000000
    1    8.78991788   -8.45724774   -3.52505457     -1.57612856    5.02792046   -2.19779514      0.00000000    0.00000000    0.00000000
    1    7.64509890   -8.04757874   -4.92507254      2.97356761    2.85496405    3.26928116      0.00000000    0.00000000    0.00000000
    8    8.00698788   -4.51435641   -8.20724372      0.02813880    6.42373537    3.70918977      0.00000000    0.00000000    0.00000000
    1    7.55229089   -4.31955847   -9.07630773      1.70736998   -5.15692440    0.51218565      0.00000000    0.00000000    0.00000000
    1    8.44174087   -5.30996945   -7.78539475     -1.82285610   -1.31934068   -4.95311872      0.00000000    0.00000000    0.00000000
    8   -3.27739082   -6.48040621    4.97874392      7.27890910    0.47920252    0.16371814      0.00000000    0.00000000    0.00000000
    1   -3.59564186   -7.42815621    4.95745192     -3.84745551    3.39960440    0.01107734      0.00000000    0.00000000    0.00000000
    1   -3.70692186   -5.57740223    4.98610192     -3.44146620   -4.01619199   -0.16968144      0.00000000    0.00000000    0.00000000
    8   -4.87236555    8.18547144   -8.42851985      5.38631474   -3.23446804   -4.80672126      0.00000000    0.00000000    0.00000000
    1   -5.49802458    7.46348647   -8.13312683     -0.33309679    4.32497659    1.10316104      0.00000000    0.00000000    0.00000000
    1   -4.72333459    9.14698544   -8.19776881     -3.64543797   -2.35553796    2.67918137      0.00000000    0.00000000    0.00000000
    8   -2.99166793   -5.52873852    0.97409322      6.66845295   -3.01182618   -1.46645601      0.00000000    0.00000000    0.00000000
    1   -3.80911095   -6.10289250    0.92827423     -1.28140194    4.39885580    1.17152738      0.00000000    0.00000000    0.00000000
    1   -2.79997797   -4.56272252    1.14740222     -5.10559121   -1.32150038    0.35223586      0.00000000    0.00000000    0.00000000
    8   -8.85037271   -2.62709059    3.24021223     -0.26907826   -6.86171145   -2.32976723      0.00000000    0.00000000    0.00000000
    1   -7.96546272   -2.17863955    3.36588024     -3.49051976    3.01786543    1.29668369      0.00000000    0.00000000    0.00000000
    1    9.19058131   -2.37437255    3.36800324      3.43487789    3.93400795    1.20039547      0.00000000    0.00000000    0.00000000
    8   -0.19434858   -6.20422115    6.55669979     -0.36379199   -0.11951706   -7.12355692      0.00000000    0.00000000    0.00000000
    1   -0.32953557   -7.10726113    6.96438883      0.94753453    3.73420738    3.38364361      0.00000000    0.00000000    0.00000000
    1   -0.00572058   -5.28271317    6.89612383     -0.45872953   -3.63818246    3.74785136      0.00000000    0.00000000    0.00000000
    8   -8.86928739  -10.03685485   -7.18370043     -0.55012378    7.42654804   -0.88813330      0.00000000    0.00000000    0.00000000
    1   -9.79763838    8.59159911   -7.17443342      3.47607481   -3.30590868    0.12703214      0.00000000    0.00000000    0.00000000
    1   -7.94525640    8.59259710   -7.08973943     -3.40545938   -4.33109295    0.53044458      0.00000000    0.00000000    0.00000000
    8   -1.40413849    5.06224629   -6.35180289      4.31363972    3.14574198    4.61713071      0.00000000    0.00000000    0.00000000
    1   -0.94303053    4.32025028   -6.83841091     -4.87342571    1.02332290   -1.82069022      0.00000000    0.00000000    0.00000000
    1   -2.28475651    5.53073526   -6.42249192      0.57489922   -4.01860580   -3.30927145      0.00000000    0.00000000    0.00000000
    8    0.04360893   -2.54613101    2.91276706     -5.96280336    2.02263520    3.82147920      0.00000000    0.00000000    0.00000000
    1   -0.11158803   -2.47237903    1.92765705      4.83191494   -1.67799864    1.25163108      0.00000000    0.00000000    0.00000000
    1    0.80508495   -2.81424803    3.50288002      1.14120141   -0.34806341   -5.08754752      0.00000000    0.00000000    0.00000000
    8   -6.98851280   -4.23107547    5.26650707      0.21254240   -7.69958380   -1.07637143      0.00000000    0.00000000    0.00000000
    1   -6.09406382   -3.88281342    5.54693507     -3.87414233    3.78363584    0.20238609      0.00000000    0.00000000    0.00000000
    1   -7.90788578   -3.85165042    5.16279007      3.37942200    3.66564826    1.56717782      0.00000000    0.00000000    0.00000000
    8   -3.38053169    1.41333087    8.35888067      4.81206888   -1.51506381   -6.41331179      0.00000000    0.00000000    0.00000000
    1   -3.37213273    2.35063186    8.70725271     -3.32882798   -3.00129308    3.14895411      0.00000000    0.00000000    0.00000000
    1   -3.83773071    0.55864790    8.60475671     -1.14234618    4.23884620    3.12877210      0.00000000    0.00000000    0.00000000
    8    6.66240335   -4.85330985   -5.97432062     -1.52654693    2.23381537    6.66357158      0.00000000    0.00000000    0.00000000
    1    7.60976235   -4.76690487   -6.28256066     -3.24531548   -1.77228842   -3.61907207      0.00000000    0.00000000    0.00000000
    1    5.80733237   -5.19471187   -6.36453166      4.19620687   -0.25354066   -3.35440323      0.00000000    0.00000000    0.00000000
    8   -2.48849626    6.44223070    0.78848202     -3.43935527   -6.38847267    3.33034893      0.00000000    0.00000000    0.00000000
    1   -3.24162522    7.02602873    0.48526000      4.68650310    2.12779736   -0.87431967      0.00000000    0.00000000    0.00000000
    1   -1.49026726    6.50112074    0.79462699     -1.81341498    4.47168994   -2.11144860      0.00000000    0.00000000    0.00000000
    8   -5.04317955    2.94056178    5.62812967      1.02316977   -6.72521046    2.35418936      0.00000000    0.00000000    0.00000000
    1   -4.40096257    3.23039583    4.91853767     -3.05226580    3.64676607    1.63907716      0.00000000    0.00000000    0.00000000
    1   -5.78085755    3.36961182    6.14938965      2.40107225    3.19829038   -3.39875257      0.00000000    0.00000000    0.00000000
    8   -7.55707273   -7.30900355   -6.16261952     -4.32555821   -3.84283010    3.66031095      0.00000000    0.00000000    0.00000000
    1   -7.30312870   -6.35726153   -5.99038155      1.72091823   -1.74846022   -4.27741767      0.00000000    0.00000000    0.00000000
    1   -7.36810269   -7.98654550   -6.87339054      2.29605146    4.73238940   -0.91809033      0.00000000    0.00000000    0.00000000
    8   -8.67663717    9.48131601    7.34936993      4.15611226   -5.80965319    0.32285895      0.00000000    0.00000000    0.00000000
    1   -8.22332120   -8.72005596    7.74517891     -4.72271232    0.79632639   -1.55437779      0.00000000    0.00000000    0.00000000
    1    9.41824682    9.28001106    6.97492693      0.43579033    4.81750563    1.45584538      0.00000000    0.00000000    0.00000000
    8    8.05324759   -1.64713304   -6.63191777      4.52313269   -5.73074952    1.49076900      0.00000000    0.00000000    0.00000000