 BEGIN_INFO
   #
   # This is a XCRYSDEN-Structure-File
   # aimed for Visualization of Fermi Surface
   #
   # Case: Tight-binding calculation
   #
   # Launch as: xcrysden --xsf HICOLM.XSF
   #
 END_INFO
 # estrutura final
CRYSTAL
PRIMVEC
      19.00000000       0.00000000       0.00000000
       0.00000000      19.00000000       0.00000000
       0.00000000       0.00000000      19.00000000
PRIMCOORD
  300    1
    8   -2.29473679    5.43993277    6.48848072      0.08644484    0.31091944   -0.56712119      0.00000000    0.00000000    0.00000000
    1   -2.69922278    6.22023613    6.87971663      0.01103584    0.16019491    0.03306414      0.00000000    0.00000000    0.00000000
    1   -2.41417843    4.74611627    7.16036001      0.03231834   -0.42964320    0.45490228      0.00000000    0.00000000    0.00000000
    8   -5.22508327   -7.14888373    2.61636255      0.04114965    0.01599179   -0.61273164      0.00000000    0.00000000    0.00000000
    1   -4.82859624   -7.98036526    2.93062336      0.59231340   -0.11068212    1.02859231      0.00000000    0.00000000    0.00000000
    1   -5.10666381   -6.57262549    3.37820794      0.09136020   -0.07213262    0.48138571      0.00000000    0.00000000    0.00000000
    8   -6.90514317    8.64536478    3.18050117     -0.09604011    0.17082997    0.45046915      0.00000000    0.00000000    0.00000000
    1   -7.32507185    8.78542041    2.32110002     -0.34021456    0.03285245   -0.37849255      0.00000000    0.00000000    0.00000000
    1   -6.43092876    7.81160838    3.06471434     -0.17789384   -0.33166314   -0.29840573      0.00000000    0.00000000    0.00000000
    8    4.15713290   -6.82725903   -2.22374676     -0.04924441    0.51978016   -0.04613422      0.00000000    0.00000000    0.00000000
    1    4.96157221   -7.33907301   -2.34784140      0.11019393   -0.40058666   -0.10182348      0.00000000    0.00000000    0.00000000
    1    3.46118400   -7.49026117   -2.30553079     -0.03023590   -0.26486606    0.08013257      0.00000000    0.00000000    0.00000000
    8    6.32233740    0.48064620    3.73408828      0.12295684   -0.20587965   -0.20148074      0.00000000    0.00000000    0.00000000
    1    6.52142524    0.86261089    4.59453177      0.02925200    0.09580101    0.22735242      0.00000000    0.00000000    0.00000000
    1    5.37439183    0.60376726    3.64811470      0.36379644   -0.46712124    1.05674296      0.00000000    0.00000000    0.00000000
    8   -9.24993034    3.58236728    1.55577601     -0.55835092    0.22546533    0.78199069      0.00000000    0.00000000    0.00000000
    1   -8.87757112    3.16713761    0.75919469      0.44684575   -0.04861980   -0.79473776      0.00000000    0.00000000    0.00000000
    1   -8.71708871    4.37875482    1.64795734      0.30101774   -0.00493611   -0.06879967      0.00000000    0.00000000    0.00000000
    8   -4.96758463    6.81262459    2.38142425     -0.09872994    0.00952751    0.56700321      0.00000000    0.00000000    0.00000000
    1   -5.73008452    6.26212417    2.16195675     -0.23709748   -0.21721000   -0.27120719      0.00000000    0.00000000    0.00000000
    1   -5.11367291    7.63283603    1.89301742      0.10379449    0.09514954   -0.83483633      0.00000000    0.00000000    0.00000000
    8    6.95115197   -9.36196571   -7.23875228      2.11259895    0.06449831   -1.15589782      0.00000000    0.00000000    0.00000000
    1    6.07485431   -8.95193988   -7.03469362     -1.56700546    0.04250575    0.48708569      0.00000000    0.00000000    0.00000000
    1    6.74565970    8.69797393   -7.14919320     -1.28447790   -0.14362812   -0.16443554      0.00000000    0.00000000    0.00000000
    8   -9.00656193   -8.19114540   -7.09003087      0.13932932   -0.07145336   -0.01718219      0.00000000    0.00000000    0.00000000
    1    9.61124018   -7.31715381   -7.03598407      0.09624394    0.06122466    0.06333379      0.00000000    0.00000000    0.00000000
    1    9.52129367   -8.60020154   -7.81965768     -0.29792844    0.10007963   -0.17774961      0.00000000    0.00000000    0.00000000
    8    4.40349631   -4.88563246    1.72570309     -0.50478710   -0.53190437    0.45741337      0.00000000    0.00000000    0.00000000
    1    4.01909872   -4.01049955    1.59200252      0.22598200    0.24516861   -0.13167032      0.00000000    0.00000000    0.00000000
    1    5.28567917   -4.79790547    1.33758210      0.42134562    0.10966175   -0.22253850      0.00000000    0.00000000    0.00000000
    8    6.37724637   -6.73463178   -8.77291884      0.08639369    0.14526845   -0.56675859      0.00000000    0.00000000    0.00000000
    1    6.05394986   -7.64116099   -8.79683675     -0.06024792   -0.32028542   -0.08193090      0.00000000    0.00000000    0.00000000
    1    6.60773650   -6.61788024   -7.82964102     -0.39761962   -0.32799040    0.16854690      0.00000000    0.00000000    0.00000000
    8   -8.52239213   -1.97932559    3.71742006      0.71212101   -0.46353086   -0.00888456      0.00000000    0.00000000    0.00000000
    1   -8.62309771   -1.05855280    3.45601189     -0.08220526    0.17167971    0.02028883      0.00000000    0.00000000    0.00000000
    1    9.56708222   -2.30931321    3.71478846     -0.76300750    0.05944497    0.20468948      0.00000000    0.00000000    0.00000000
    8    2.82822168    9.29826834   -2.54884190      0.16290738    0.00291007    1.83447239      0.00000000    0.00000000    0.00000000
    1    3.40950793    8.82269557   -3.17091976      0.18583019   -0.44312989   -0.73129553      0.00000000    0.00000000    0.00000000
    1    2.26197312   -9.17256850   -3.14421422     -0.54802852    0.60414634   -0.48654075      0.00000000    0.00000000    0.00000000
    8    0.21039360    6.33085833   -7.91780697     -0.11859988   -0.19108083    0.31594337      0.00000000    0.00000000    0.00000000
    1   -0.40920477    6.07170892   -8.60111433     -0.10414186    0.08914723   -0.26629260      0.00000000    0.00000000    0.00000000
    1    1.06915205    6.10141926   -8.28902339      0.21408535    0.25415566   -0.50346540      0.00000000    0.00000000    0.00000000
    8    7.46008742   -8.56849950    5.55899187      0.00995715    0.11059372   -0.10048859      0.00000000    0.00000000    0.00000000
    1    6.55095113   -8.44778366    5.28038102     -0.10130743    0.00901123   -0.03645658      0.00000000    0.00000000    0.00000000
    1    7.96579161   -8.05905568    4.93159931     -0.42059396   -0.14816153    0.09130180      0.00000000    0.00000000    0.00000000
    8    5.72644286    6.83419376   -2.03134560      1.17125253   -0.17792596   -0.08194082      0.00000000    0.00000000    0.00000000
    1    5.44465681    7.74052954   -1.86212580     -0.22447728    0.04514499    0.27136470      0.00000000    0.00000000    0.00000000
    1    4.88814798    6.40943139   -2.30012458     -0.90455453   -0.14127277    0.07437760      0.00000000    0.00000000    0.00000000
    8    7.75926766    1.88898552   -0.80819772     -0.41089497   -0.40620293   -0.09973197      0.00000000    0.00000000    0.00000000
    1    7.79514068    2.44251860   -0.02365831      0.28149481    0.20152523    0.15083034      0.00000000    0.00000000    0.00000000
    1    8.57520436    2.12924472   -1.26248973     -0.13462665    0.32687595    0.15147867      0.00000000    0.00000000    0.00000000
    8   -3.84178837   -7.08666577   -8.09927800     -0.54579925   -0.42471860    0.29081806      0.00000000    0.00000000    0.00000000
    1   -3.21657875   -7.75863593   -8.41307917      0.38346364   -0.08430930   -0.18142696      0.00000000    0.00000000    0.00000000
    1   -3.75161360   -6.38321683   -8.75866416      0.17729020    0.51572022   -0.32676015      0.00000000    0.00000000    0.00000000
    8    8.89934892   -6.37039905    8.61751781      1.00719776   -0.13026865   -1.21800975      0.00000000    0.00000000    0.00000000
    1    8.79015453   -5.62273910    9.23536456     -0.65552341    0.07397612    0.87787256      0.00000000    0.00000000    0.00000000
    1    8.17071842   -6.95125330    8.88474585     -0.60822288    0.04256854    0.21500513      0.00000000    0.00000000    0.00000000
    8    9.27884143   -7.55500426   -1.10687757      0.78270222    0.77319781   -0.03800230      0.00000000    0.00000000    0.00000000
    1    9.44125088   -8.04201817   -1.92140399     -0.18792075   -0.61822264    0.00785324      0.00000000    0.00000000    0.00000000
    1    8.44507366   -7.93642630   -0.80584999     -0.30379034   -0.21778704    0.01248326      0.00000000    0.00000000    0.00000000
    8   -3.54643403   -1.40800226    9.60103453     -1.42404121   -0.65959596    0.25063356      0.00000000    0.00000000    0.00000000
    1   -4.04866557   -2.22550571   -9.37885812     -0.12484644   -0.36557401    0.09286888      0.00000000    0.00000000    0.00000000
    1   -2.82032244   -1.55393050    8.93716433     -0.10564617   -0.46447315   -0.58574583      0.00000000    0.00000000    0.00000000
    8    1.23164495   -4.18642365   -9.30816593     -0.33946541   -0.00352205   -0.14098486      0.00000000    0.00000000    0.00000000
    1    1.33354032   -4.91160456   -8.68443522      0.06073469   -0.27086386    0.20773126      0.00000000    0.00000000    0.00000000
    1    0.88592326   -3.46747172   -8.77818683      0.65758630    0.27536442   -0.03172173      0.00000000    0.00000000    0.00000000
    8   -4.43040444    9.64343035    3.75154770      0.50912301    0.23483672   -2.42263473      0.00000000    0.00000000    0.00000000
    1   -4.83619457    9.35367202    2.93349431     -1.07860054   -0.22415178    1.52054199      0.00000000    0.00000000    0.00000000
    1   -5.02352056    9.24573477    4.40746177     -0.25566953   -0.29038061    0.40833292      0.00000000    0.00000000    0.00000000
    8   -8.27111357    1.70405658   -6.76906864     -0.09893651   -0.02445165    0.50358770      0.00000000    0.00000000    0.00000000
    1   -8.38065423    0.82398410   -7.13173615      0.04839872    0.03416626   -0.13255576      0.00000000    0.00000000    0.00000000
    1   -8.43927194    2.27998474   -7.52950566      0.19817451   -0.07942776   -0.72616232      0.00000000    0.00000000    0.00000000
    8    7.89113772   -1.97278410    2.69615191      0.85080916   -0.42688096    0.13255960      0.00000000    0.00000000    0.00000000
    1    7.10679984   -2.07798674    2.13701226     -0.39035014    0.05518169   -0.09209808      0.00000000    0.00000000    0.00000000
    1    7.78925918   -1.08309411    3.04002117     -0.56132754    0.45128805   -0.00745492      0.00000000    0.00000000    0.00000000
    8    0.49053175   -1.55599508   -7.91969037      0.00247134   -0.48057188   -0.04751176      0.00000000    0.00000000    0.00000000
    1   -0.34695942   -2.02043993   -7.95709360     -0.11696481    0.74337236   -0.04231598      0.00000000    0.00000000    0.00000000
    1    0.95224010   -1.90656327   -7.15597297      0.15397547    0.20822408    0.23919290      0.00000000    0.00000000    0.00000000
    8   -1.12199018   -8.32002724   -6.74315781     -0.03627453   -0.05070553    0.13871835      0.00000000    0.00000000    0.00000000
    1   -0.25490375   -7.99161963   -6.49092550      0.22176046    0.26172276   -0.27808064      0.00000000    0.00000000    0.00000000
    1   -1.46387551   -7.63087687   -7.31665670     -0.03651400    0.16764105    0.02751444      0.00000000    0.00000000    0.00000000
    8    1.38106157   -6.94590404   -8.09290261     -0.72995431    0.69347956   -0.12869161      0.00000000    0.00000000    0.00000000
    1    1.39194772   -7.91749925   -8.05973018      0.44237404   -0.58292177    0.16735132      0.00000000    0.00000000    0.00000000
    1    2.26414176   -6.73938415   -8.41392003      0.32021674   -0.25897998   -0.04936186      0.00000000    0.00000000    0.00000000
    8   -6.39138712    5.05306854    0.67257526     -0.24759396    0.35480329    0.48392709      0.00000000    0.00000000    0.00000000
    1   -5.46582784    5.26007211    0.83492010      0.33003652   -0.28964024   -0.26084282      0.00000000    0.00000000    0.00000000
    1   -6.54054447    4.25687621    1.18669362      0.17000879   -0.29019029   -0.15240484      0.00000000    0.00000000    0.00000000
    8   -4.54903848    8.87791986   -8.78383071     -0.46661605   -0.22775257   -0.32330635      0.00000000    0.00000000    0.00000000
    1   -5.03058003   -9.30653454   -8.94978228     -0.02017316    0.19695621    0.08270391      0.00000000    0.00000000    0.00000000
    1   -3.62525969    9.17448661   -8.74452953      0.62093170    0.19576336    0.32010580      0.00000000    0.00000000    0.00000000
    8   -2.48669853    2.05900642   -6.58556814      0.20240976   -0.36732993   -0.06467962      0.00000000    0.00000000    0.00000000
    1   -1.95532877    1.98676713   -5.79228212     -0.03691853    0.15131185    0.11212179      0.00000000    0.00000000    0.00000000
    1   -3.38944459    2.11883810   -6.26054934     -0.18013110    0.15522476    0.03776350      0.00000000    0.00000000    0.00000000
    8   -4.20099118   -3.29184375   -7.08598211     -1.08155681   -0.58146003   -0.13665073      0.00000000    0.00000000    0.00000000
    1   -3.91969674   -2.39019835   -6.86195335      0.57825460    0.38354618    0.06880614      0.00000000    0.00000000    0.00000000
    1   -3.36515085   -3.76998370   -7.08983622      0.40437540    0.10062009   -0.03050950      0.00000000    0.00000000    0.00000000
    8   -2.12519900   -8.98172981    9.48746049     -0.65270210   -1.46616859    1.16521730      0.00000000    0.00000000    0.00000000
    1   -2.62632584   -9.01433725    8.65515219      0.54560465    0.62726571   -0.66144537      0.00000000    0.00000000    0.00000000
    1   -1.72175362   -8.09513727    9.43131984      0.03975192    0.85939369   -0.77371864      0.00000000    0.00000000    0.00000000
    8    2.14248614    9.49606132   -6.49040400      0.00311963    2.12522341    0.17053184      0.00000000    0.00000000    0.00000000
    1    2.69903934    8.78889158   -6.86948552      0.46288144   -0.94486323   -0.26511138      0.00000000    0.00000000    0.00000000
    1    1.57968917    9.00071663   -5.87008786     -0.28709335   -1.22033269   -0.70233392      0.00000000    0.00000000    0.00000000
    8   -8.02827387   -5.10358651   -1.10568057      0.03090337    0.12839609   -0.00897201      0.00000000    0.00000000    0.00000000
    1   -7.09278418   -5.26710302   -1.27674322      0.18051292    0.08170300   -0.30568757      0.00000000    0.00000000    0.00000000
    1   -8.45682979   -5.95010634   -1.26882562     -0.40849465   -0.21864754   -0.00891494      0.00000000    0.00000000    0.00000000
    8   -2.41784432   -5.08462785   -0.70982982      0.31488087   -0.31392544   -0.56565081      0.00000000    0.00000000    0.00000000
    1   -2.75304975   -5.02349228    0.19944929     -0.20736626    0.21088352    0.63192012      0.00000000    0.00000000    0.00000000
    1   -3.08289035   -4.61624972   -1.23056864      0.46653606    0.47158898    0.65222123      0.00000000    0.00000000    0.00000000
    8    8.79844026   -2.01710873   -0.21176022     -0.38675664    0.01116436   -0.11373334      0.00000000    0.00000000    0.00000000
    1    8.57529652   -2.56748706    0.55097947      0.37968984    0.16291304    0.35869391      0.00000000    0.00000000    0.00000000
    1   -9.24572769   -2.13581725   -0.31643488      0.31609484   -0.07286956   -0.15397587      0.00000000    0.00000000    0.00000000
    8   -1.51743805   -8.52045536   -4.15316999      0.43734730   -0.01746265    1.07496399      0.00000000    0.00000000    0.00000000
    1   -1.56648697   -8.40670854   -5.12007264     -0.32016368   -0.17147592   -0.90243958      0.00000000    0.00000000    0.00000000
    1   -1.59886064   -9.46907911   -4.04623083     -0.29416872   -0.06003236   -0.13317429      0.00000000    0.00000000    0.00000000
    8   -7.19963048    9.09701311   -1.25323740     -0.13195784   -0.32686921   -0.63127128      0.00000000    0.00000000    0.00000000
    1   -7.17502497   -9.19494219   -0.58661634      0.06834594    0.33595642    0.55668500      0.00000000    0.00000000    0.00000000
    1   -6.56772761    8.45943676   -0.92309845      0.03996199    0.07539474    0.05756117      0.00000000    0.00000000    0.00000000
    8    9.08658344    6.06867060    0.31352120      0.36445702    0.67064518    0.54736013      0.00000000    0.00000000    0.00000000
    1    9.22836485    5.21485843    0.73833542     -0.38072319   -0.29538612   -0.25115009      0.00000000    0.00000000    0.00000000
    1    8.56713664    5.83341966   -0.47368000     -0.17754673   -0.43053328   -0.31894641      0.00000000    0.00000000    0.00000000
    8   -1.71062794    4.87764634    1.15888226     -0.07549462   -0.08257617   -0.18785367      0.00000000    0.00000000    0.00000000
    1   -0.85961968    5.28768963    1.31677992      0.00069521    0.03798587    0.07293575      0.00000000    0.00000000    0.00000000
    1   -2.31452918    5.61812565    1.08860663      0.04481892    0.07034025    0.11929494      0.00000000    0.00000000    0.00000000
    8    3.26374819    5.75373477   -2.76051332      0.38044387   -0.19516929    0.42529330      0.00000000    0.00000000    0.00000000
    1    2.91515329    4.92306528   -3.09121197     -0.19240550   -0.05484783   -0.17401781      0.00000000    0.00000000    0.00000000
    1    3.35649535    6.29602715   -3.55395991     -0.12269902    0.24556489   -0.35692253      0.00000000    0.00000000    0.00000000
    8    7.66191663    4.59314069   -1.68881735      0.40182648   -0.19573492    0.42953480      0.00000000    0.00000000    0.00000000
    1    7.55810917    3.98876133   -2.42714295     -0.12016163    0.10150345   -0.17139543      0.00000000    0.00000000    0.00000000
    1    7.15398434    5.37150881   -1.95914779     -0.47401629    0.53498288   -0.24877693      0.00000000    0.00000000    0.00000000
    8   -7.42262817    8.74722145   -7.92272538     -0.39404300   -0.92384310   -0.43920264      0.00000000    0.00000000    0.00000000
    1   -7.90282251   -9.53082841   -7.48186257     -0.03334684    0.84932395    0.59409697      0.00000000    0.00000000    0.00000000
    1   -6.50406357    9.04544219   -7.89653064      0.32552375    0.12721497    0.20924295      0.00000000    0.00000000    0.00000000
    8   -6.54809133    7.08421115    8.81349342     -0.02063492   -1.03966318    0.31235125      0.00000000    0.00000000    0.00000000
    1   -6.20483831    7.82901427    8.29059285      0.03134411    0.22485791   -0.44680123      0.00000000    0.00000000    0.00000000
    1   -7.48356086    7.30447971    8.85838266     -0.09068886    0.56290871   -0.36736160      0.00000000    0.00000000    0.00000000
    8   -9.02361416    4.48476490   -6.37687369     -0.43404592   -0.12063383    0.27407012      0.00000000    0.00000000    0.00000000
    1   -8.71059457    3.58819096   -6.55218591      0.26052035   -0.22687666    0.31313038      0.00000000    0.00000000    0.00000000
    1   -8.62160848    5.01911181   -7.08262203      0.12128754    0.45604547   -0.14942637      0.00000000    0.00000000    0.00000000
    8   -4.96734009   -9.59675741    1.25201575      0.39088435   -1.00330598    1.91905664      0.00000000    0.00000000    0.00000000
    1   -4.46201464    9.22371966    2.04371747      1.34768065    0.23994600   -1.18353483      0.00000000    0.00000000    0.00000000
    1   -5.44584893   -8.78621723    1.48134678     -0.33269971    0.81718207   -0.22980979      0.00000000    0.00000000    0.00000000
    8   -8.91524338   -2.74475099   -6.48523645     -0.28223963   -0.42536757   -0.22404085      0.00000000    0.00000000    0.00000000
    1   -8.57740363   -2.02121942   -5.94722486      0.10213904    0.12649641    0.11761234      0.00000000    0.00000000    0.00000000
    1   -8.23212312   -2.86944329   -7.14654034      0.26901684    0.25123657   -0.01672959      0.00000000    0.00000000    0.00000000
    8   -4.80058746   -5.03204847    8.96693194      0.07377885    0.09775302    0.32313585      0.00000000    0.00000000    0.00000000
    1   -5.67641396   -5.01523144    8.56573214      0.00493635   -0.13361926   -0.40868495      0.00000000    0.00000000    0.00000000
    1   -4.24792393   -5.39130623    8.26675454      0.10658201   -0.15325094   -0.36506751      0.00000000    0.00000000    0.00000000
    8    4.24604771    0.95264594    2.02545635     -0.70459946   -0.77404898    0.36750318      0.00000000    0.00000000    0.00000000
    1    4.47411079    1.73807203    1.49536445      0.42560350    0.78247105   -0.50009483      0.00000000    0.00000000    0.00000000
    1    4.84900953    1.01331895    2.77149759     -0.04218888    0.69746067   -1.15679417      0.00000000    0.00000000    0.00000000
    8   -2.54076546    3.80649853    8.74462958      0.33795816    0.33938352   -0.31951837      0.00000000    0.00000000    0.00000000
    1   -2.81236857    4.60208530    9.23810215     -0.32409892   -0.12783279    0.24682082      0.00000000    0.00000000    0.00000000
    1   -3.24621581    3.19219182    8.96822198     -0.23858171   -0.09461657    0.18244618      0.00000000    0.00000000    0.00000000
    8   -3.21262262    8.35379788    7.46852877      0.11467035    0.27602387   -0.01290697      0.00000000    0.00000000    0.00000000
    1   -3.33391794    8.51170514    8.41510634     -0.15976375   -0.66882460    0.36345570      0.00000000    0.00000000    0.00000000
    1   -4.09217260    8.13651702    7.14025280     -0.47480911   -0.31789138   -0.28627445      0.00000000    0.00000000    0.00000000
    8   -8.92852546   -4.01121438    1.76122469      0.09398947   -0.02016552   -0.77495919      0.00000000    0.00000000    0.00000000
    1   -9.02078016   -3.11571623    2.13690734     -0.15054343    0.28364068    0.69179463      0.00000000    0.00000000    0.00000000
    1   -8.60075852   -4.49788219    2.52654711     -0.48632460    0.02757096    0.63619887      0.00000000    0.00000000    0.00000000
    8   -1.27145630   -3.87899478   -8.07880822     -0.16978281   -0.16515149    0.06632008      0.00000000    0.00000000    0.00000000
    1   -0.97250409   -3.19908832   -7.47029128     -0.40991555   -0.27096325    0.42660881      0.00000000    0.00000000    0.00000000
    1   -0.68455332   -3.79169706   -8.84278650      0.03201115   -0.01787030   -0.42169840      0.00000000    0.00000000    0.00000000
    8    3.52740603    7.21461017   -6.83907695     -0.39845452    1.65027889    0.43516584      0.00000000    0.00000000    0.00000000
    1    4.34801421    6.68816066   -6.89761655      0.51248846   -1.05137308   -0.18635582      0.00000000    0.00000000    0.00000000
    1    2.84202130    6.52972824   -6.90698773      0.16946448   -0.81845809   -0.29480806      0.00000000    0.00000000    0.00000000
    8    4.28966199    8.03664729   -4.24552700     -0.27561720   -0.11500502    0.58652315      0.00000000    0.00000000    0.00000000
    1    5.23773079    7.86459293   -4.18514620      0.44594265   -0.32735864   -0.39003406      0.00000000    0.00000000    0.00000000
    1    4.13543673    8.10206050   -5.19966978      0.03408546   -0.12761704   -0.85582995      0.00000000    0.00000000    0.00000000
    8    7.09768005   -6.39511483   -6.20556837     -0.41557755   -0.00518170   -0.18802258      0.00000000    0.00000000    0.00000000
    1    7.43747240   -6.03413899   -7.03366396      0.74762794    0.50133670    0.06726838      0.00000000    0.00000000    0.00000000
    1    7.85392830   -6.84857404   -5.80014087      0.29840797   -0.28137097    0.05081037      0.00000000    0.00000000    0.00000000
    8   -3.68022137   -4.71975049    1.88731168      0.39169919    0.09144232   -0.49709679      0.00000000    0.00000000    0.00000000
    1   -4.36366391   -5.40523942    1.91398547     -0.32636985   -0.28520087    0.06020911      0.00000000    0.00000000    0.00000000
    1   -4.00898300   -4.04157077    2.48721947     -0.04943553    0.07561471    0.29744789      0.00000000    0.00000000    0.00000000
    8   -5.79374175    4.49396982    9.72182706      0.40649149   -0.39969899    0.24862987      0.00000000    0.00000000    0.00000000
    1   -6.69666691    4.17519287    9.62117663     -0.15203502   -0.20512771   -0.08792669      0.00000000    0.00000000    0.00000000
    1   -5.86320846    5.45067926    9.59879005     -0.09656074    0.52274159   -0.29573223      0.00000000    0.00000000    0.00000000
    8   -1.38821964   -2.69535049   -3.85114179      0.24300552    0.38313134   -0.56551518      0.00000000    0.00000000    0.00000000
    1   -1.90040580   -3.48893809   -3.66385506     -0.18420434   -0.12761460    0.25875098      0.00000000    0.00000000    0.00000000
    1   -1.26888554   -2.31224411   -2.97998845     -0.09734123   -0.17953323    0.23501319      0.00000000    0.00000000    0.00000000
    8    6.89913459   -4.12698549    0.50745380     -0.09259353   -0.34651208    0.37549397      0.00000000    0.00000000    0.00000000
    1    7.70425912   -3.72073321    0.15473075     -0.08887328   -0.12176505   -0.42213008      0.00000000    0.00000000    0.00000000
    1    6.23266864   -3.46540920    0.32295369     -0.16168870    0.38698824   -0.20018198      0.00000000    0.00000000    0.00000000
    8   -1.29854477   -6.53846311    9.29229250     -0.31476405   -0.26919354    0.05111747      0.00000000    0.00000000    0.00000000
    1   -0.54976185   -7.02435613   -9.34606154      0.53076978    0.56376915    0.12113141      0.00000000    0.00000000    0.00000000
    1   -1.17904425   -5.64468381   -9.35910397      0.02773885    0.39971358    0.17313322      0.00000000    0.00000000    0.00000000
    8   -7.55297644   -6.31283862    7.93157561      1.29291607    0.74871705   -1.18365541      0.00000000    0.00000000    0.00000000
    1   -8.50371764   -6.37743866    8.17525999     -1.20586735   -0.41857342    0.42389464      0.00000000    0.00000000    0.00000000
    1   -7.11084477   -6.79736801    8.65117988     -0.08056249   -0.62821557    0.43713712      0.00000000    0.00000000    0.00000000
    8    2.49245157    4.79586190   -7.85013021      0.07787640    0.40892603   -0.13752147      0.00000000    0.00000000    0.00000000
    1    2.62906630    3.85516408   -7.99086157      0.02300277   -0.20507168    0.00010795      0.00000000    0.00000000    0.00000000
    1    1.56557950    4.85424055   -7.58467017     -0.20948368   -0.48372020    0.38687742      0.00000000    0.00000000    0.00000000
    8    1.93647334    0.08160286    0.85168431     -0.58118490   -0.48989424   -0.40158454      0.00000000    0.00000000    0.00000000
    1    1.71951725    0.70267085    0.15616664      0.06658032    0.06432565    0.09570684      0.00000000    0.00000000    0.00000000
    1    2.75938535    0.45057753    1.22945673      0.58244922    0.35010553    0.38157229      0.00000000    0.00000000    0.00000000
    8   -6.65372593   -5.28922324    1.57364840      0.22619566    0.18014204   -0.50726147      0.00000000    0.00000000    0.00000000
    1   -6.36233513   -4.82818340    2.36810118     -0.04327961    0.15015092    0.22812903      0.00000000    0.00000000    0.00000000
    1   -7.56934619   -4.97939183    1.45588784     -0.70032178    0.47687889   -0.29635414      0.00000000    0.00000000    0.00000000
    8   -4.81130807   -0.50515159    4.41242651     -0.12547268   -0.51096243   -0.06586177      0.00000000    0.00000000    0.00000000
    1   -4.39298500    0.29807178    4.74009501      0.10060486    0.14892794    0.04873430      0.00000000    0.00000000    0.00000000
    1   -4.92700115   -1.02836849    5.19685227      0.04674397    0.41545526    0.24162603      0.00000000    0.00000000    0.00000000
    8    4.75768116   -8.30818608   -6.68033089      0.05688354   -0.06015410    0.01417661      0.00000000    0.00000000    0.00000000
    1    5.21144221   -7.50354861   -6.94020123     -0.31601826    0.59352924    0.32539971      0.00000000    0.00000000    0.00000000
    1    3.82088261   -8.10845020   -6.77120016     -0.45434534   -0.07267524    0.04144242      0.00000000    0.00000000    0.00000000
    8    5.01541627    3.13164560    0.26921643     -0.39174109   -0.40630921    0.58939562      0.00000000    0.00000000    0.00000000
    1    4.70895675    3.95280309   -0.13127586      0.10347009    0.20704738   -0.15963892      0.00000000    0.00000000    0.00000000
    1    5.83724274    2.95625443   -0.21025019      0.26778272    0.00429305   -0.34884267      0.00000000    0.00000000    0.00000000
    8   -5.89816265    7.78759495    5.65229439      0.83010674   -0.40978950   -0.01592512      0.00000000    0.00000000    0.00000000
    1   -5.88878960    7.59918950    4.71106096     -0.21414112   -0.12689885    0.13543409      0.00000000    0.00000000    0.00000000
    1   -6.72193798    8.27953841    5.77500512     -0.31511044    0.25713666    0.06280940      0.00000000    0.00000000    0.00000000
    8   -8.51986718    6.38869216   -8.42034364     -1.40648108   -1.61932119   -0.17139310      0.00000000    0.00000000    0.00000000
    1   -8.23786083    7.20712964   -7.95739355      0.89989665    0.93664846    0.17592047      0.00000000    0.00000000    0.00000000
    1   -7.78427296    6.28133589   -9.03570242      0.65084826    0.29286581    0.10357779      0.00000000    0.00000000    0.00000000
    8   -8.65169912   -8.24167726    5.61351108      0.01296876    0.08613644    0.07997713      0.00000000    0.00000000    0.00000000
    1   -7.98424736   -7.55022395    5.54465025      0.47308612   -0.11256698    0.02015244      0.00000000    0.00000000    0.00000000
    1   -9.07439984   -8.24769247    4.75061091      0.38139270   -0.96043683   -0.14878457      0.00000000    0.00000000    0.00000000
    8    8.81500534   -4.92951292   -8.12138684     -0.05152248   -0.82940027   -0.18414605      0.00000000    0.00000000    0.00000000