 BEGIN_INFO
   #
   # This is a XCRYSDEN-Structure-File
   # aimed for Visualization of Fermi Surface
   #
   # Case: Tight-binding calculation
   #
   # Launch as: xcrysden --xsf HICOLM.XSF
   #
 END_INFO
 # estrutura final
CRYSTAL
PRIMVEC
      19.00000000       0.00000000       0.00000000
       0.00000000      19.00000000       0.00000000
       0.00000000       0.00000000      19.00000000
PRIMCOORD
  300    1
    8   -2.87887728    2.69951833  -34.87946350      1.40207849   -0.15069439   -0.86511351      0.00000000    0.00000000    0.00000000
    1   -3.54067635    3.44342476  -34.87335523     -0.03220060   -2.34514351    1.22244437      0.00000000    0.00000000    0.00000000
    1   -3.01767099    1.98155473  -34.20887421     -1.52294933    2.03663555   -0.24559966      0.00000000    0.00000000    0.00000000
    8    6.00806920    9.78214585   39.91412044     -1.19142435   -0.09256854    0.10256508      0.00000000    0.00000000    0.00000000
    1    6.53841886    8.98254428   39.64057573      0.54290814    2.55756217    0.64695553      0.00000000    0.00000000    0.00000000
    1    6.52137616   10.61761106   40.09263338      0.63066421   -2.47772688   -0.75034415      0.00000000    0.00000000    0.00000000
    8   27.81346984   24.14105828  -13.23928931     -0.87031849    0.14754116    0.86038672      0.00000000    0.00000000    0.00000000
    1   27.69558396   24.47679380  -14.16238192      1.85912862   -1.34587650    1.33361233      0.00000000    0.00000000    0.00000000
    1   28.67585094   23.68964174  -13.03808733     -0.96698212    0.99919226   -2.01475582      0.00000000    0.00000000    0.00000000
    8    2.39927323    7.85926229  -10.33450555      8.00915478   16.43856500    5.03427380      0.00000000    0.00000000    0.00000000
    1    3.10721142    7.16329945  -10.18570788     -1.37283077   -1.00148290   -2.82042873      0.00000000    0.00000000    0.00000000
    1    1.58725243    7.62771745  -10.83002147      1.94730922    1.59312573    0.66887206      0.00000000    0.00000000    0.00000000
    8   -0.83597079    4.38614434   20.79614559     -0.38913134   -1.28700836    0.75037812      0.00000000    0.00000000    0.00000000
    1   -0.19134766    5.02716802   21.20716207     -1.57921988    0.28179337   -2.35802336      0.00000000    0.00000000    0.00000000
    1   -1.35169969    4.70901266   19.99719403      2.02989476    1.06965700    1.76027147      0.00000000    0.00000000    0.00000000
    8   -5.71716929    4.93765473    8.16938105     -3.12521454   -1.19465628    2.27826955      0.00000000    0.00000000    0.00000000
    1   -6.02619968    4.46174663    7.35751123     -9.25166794    7.49639935    1.78132288      0.00000000    0.00000000    0.00000000
    1   -5.82401086    5.90477195    8.24652524     -1.56956248   -1.51905489   -2.39361174      0.00000000    0.00000000    0.00000000
    8   21.04547546   -0.51368916  -50.13777936      1.29805892   -0.13438833   -0.29527803      0.00000000    0.00000000    0.00000000
    1   20.44766938   -1.30335326  -50.06786822     -0.39782873    2.48855873    0.29156498      0.00000000    0.00000000    0.00000000
    1   20.62476285    0.37309615  -49.98420238     -0.90539985   -2.33413631    0.01172247      0.00000000    0.00000000    0.00000000
    8   34.31238565    2.35823253  -26.74028843      0.65417729    0.00368891   -0.48803430      0.00000000    0.00000000    0.00000000
    1   33.69565777    3.14854772  -26.68273688      0.36796099   -2.69030606    1.21222893      0.00000000    0.00000000    0.00000000
    1   34.11219994    1.58467835  -26.12963982     -1.01872268    2.70236898   -0.71473158      0.00000000    0.00000000    0.00000000
    8   -0.02116006    1.66433813    2.87050372      3.88623589   -1.16579973    1.91112918      0.00000000    0.00000000    0.00000000
    1   -0.64517448    2.39166653    3.05843764      0.38040737   -1.92997473   -3.37616834      0.00000000    0.00000000    0.00000000
    1   -0.18044747    0.91363043    2.23222752     -0.04441768    2.27017921   -0.58801172      0.00000000    0.00000000    0.00000000
    8   18.72422684    1.76108753   -5.88132801      3.00972290    3.57550739    4.09763937      0.00000000    0.00000000    0.00000000
    1   17.82885030    2.21014110   -5.92152417      5.64909528    6.71621096    0.18078963      0.00000000    0.00000000    0.00000000
    1    0.54435921    2.18105404   -6.18519960     -1.76510074    0.25957198   -3.44936599      0.00000000    0.00000000    0.00000000
    8    0.87493412   10.79587511  -19.78696362      0.45031964    0.94527096   -1.64815609      0.00000000    0.00000000    0.00000000
    1    0.21586215   10.07515978  -19.63227514      2.07974449    0.72104665    0.39920322      0.00000000    0.00000000    0.00000000
    1    1.47481393   11.02562234  -19.03209190     -1.68550720   -1.63178834    0.00399290      0.00000000    0.00000000    0.00000000
    8    3.18411946    6.80671554   -4.29576972      1.56724623    0.27746577    0.13585404      0.00000000    0.00000000    0.00000000
    1    2.65440934    7.64193691   -4.29660743     -1.10160110   -2.49382748   -0.13849275      0.00000000    0.00000000    0.00000000
    1    2.67871994    5.95301699   -4.30877906     -0.74298609    2.17875337   -0.00551902      0.00000000    0.00000000    0.00000000
    8  -29.33184434   37.06175007  -52.28620398     -0.21303972   -0.34262616    2.11988926      0.00000000    0.00000000    0.00000000
    1  -28.43809887   36.81337975  -52.63607240     -1.97997138    0.88000449   -1.29376458      0.00000000    0.00000000    0.00000000
    1  -29.99602529   37.37428647  -52.92912333      2.72814736   -1.40988683   -0.71945432      0.00000000    0.00000000    0.00000000
    8  -13.17176086   -7.57102501  -42.58336326      0.07131201    1.25771018   -0.83165335      0.00000000    0.00000000    0.00000000
    1  -13.97436792   -8.16123614  -42.53950412      2.33992274   -0.17576719    1.06768131      0.00000000    0.00000000    0.00000000
    1  -12.34834901   -7.91251781  -42.15288416     -2.22458123   -1.05708187   -0.13821530      0.00000000    0.00000000    0.00000000
    8   -3.42158971    5.08404445    8.21836954      3.23515565   -3.29391739    0.59301982      0.00000000    0.00000000    0.00000000
    1   -4.38783215    5.29578169    8.40183543      1.86332809    0.41796080   -0.82221264      0.00000000    0.00000000    0.00000000
    1   -2.84177926    5.81584150    7.97134699     -1.82840353    0.24749656    0.29854439      0.00000000    0.00000000    0.00000000
    8    2.42452865   46.94212972   10.79595978      1.15580169   -0.38233542    0.51543575      0.00000000    0.00000000    0.00000000
    1    2.17897776   47.90107407   10.71496331     -1.19178504   -2.14484924   -0.61395221      0.00000000    0.00000000    0.00000000
    1    1.75456036   46.28603708   10.46867576      0.03598335    2.52718466    0.09851645      0.00000000    0.00000000    0.00000000
    8   -1.07049238    5.60675933  -10.28619592    -35.02558815    6.22257123  -22.87496813      0.00000000    0.00000000    0.00000000
    1   -1.30350200    6.34687850   -9.66581385     -0.84256723   -0.18621063   -0.02033688      0.00000000    0.00000000    0.00000000
    1   -0.12212656    5.45203335  -10.60459772     -0.47769979    3.38647846    3.59042155      0.00000000    0.00000000    0.00000000
    8  -26.84321247  -26.87171735  -23.54825948     -0.17906170    0.46184996    1.27133345      0.00000000    0.00000000    0.00000000
    1  -26.36011975  -27.71103732  -23.77316104     -1.50334366    1.59319570   -1.33229345      0.00000000    0.00000000    0.00000000
    1  -27.36528988  -26.45364757  -24.28066597      1.40116909   -2.04473013    0.06243403      0.00000000    0.00000000    0.00000000
    8  -19.02638653    9.00552237  -27.08487994    167.97794175  462.54085157   57.07281664      0.00000000    0.00000000    0.00000000
    1  -18.66669885    9.60712764  -26.42436514      5.02446034   -2.12368707    1.89588438      0.00000000    0.00000000    0.00000000
    1  -19.03802379    7.96176419  -26.98946318     -3.08460475    0.30102438    0.17454528      0.00000000    0.00000000    0.00000000
    8   60.91675162   60.30716344   41.42148822      9.55729496   11.37483246    7.65899237      0.00000000    0.00000000    0.00000000
    1   61.40639346   60.40306664   40.53292206     -3.67480971   -1.69227037   -1.56525453      0.00000000    0.00000000    0.00000000
    1   59.96233810   59.98110752   41.46762440      0.97828834   -0.17358360   -3.01213939      0.00000000    0.00000000    0.00000000
    8   27.98804412   26.38859428  -15.65564718  ******************************************      0.00000000    0.00000000    0.00000000
    1   27.54367905   25.53899943  -15.58861003      3.57338682    4.14929610   -0.78351130      0.00000000    0.00000000    0.00000000
    1   28.93772591   26.48958522  -15.73722632      0.31783515   -3.21606367    0.04428277      0.00000000    0.00000000    0.00000000
    8   38.94383119  -13.95409104  -29.08056254    -14.96396250    9.71251179  -18.62792694      0.00000000    0.00000000    0.00000000
    1   38.75432863  -14.92711001  -29.00312701    -24.10302122   14.81833428   -0.08954820      0.00000000    0.00000000    0.00000000
    1   38.24901870  -13.29735023  -29.09455599     -2.21304835   -1.82033658    0.35024612      0.00000000    0.00000000    0.00000000
    8    4.66226124  -14.64502040   16.24080772      3.12474954    0.01256294    0.69340643      0.00000000    0.00000000    0.00000000
    1    4.50258919  -14.27012513   15.33184512     -2.23202485   -1.14057062    1.93582682      0.00000000    0.00000000    0.00000000
    1    3.92233157  -14.98832524   16.79008329     -0.70857316    1.11468281   -2.44602108      0.00000000    0.00000000    0.00000000
    8    4.49884488    9.30812710   -4.07304655      4.71638377    0.61817041   -0.54024256      0.00000000    0.00000000    0.00000000
    1    4.03136835    8.44884916   -3.93918161     -1.78460634    2.52930003   -0.07166284      0.00000000    0.00000000    0.00000000
    1    4.08169920   10.21055398   -4.12832600     -2.26866452   -3.06882145    0.56677328      0.00000000    0.00000000    0.00000000
    8   62.17855891   79.60926729   42.07528406     10.12995560    7.90766437    6.31349009      0.00000000    0.00000000    0.00000000
    1   61.22648183   60.77960969   41.66905130     -2.86168213   -5.83857668   -1.15435465      0.00000000    0.00000000    0.00000000
    1   62.83719643   61.19264547   42.55691173      1.96623292    4.75461719    2.65851127      0.00000000    0.00000000    0.00000000
    8   -4.48637619    7.16370483   -7.24068759     -0.26028031    1.12911111    0.02556799      0.00000000    0.00000000    0.00000000
    1   -5.07260880    6.41979481   -7.54942325      2.25093841    0.22777547    0.72249832      0.00000000    0.00000000    0.00000000
    1   -3.55107151    6.93726000   -7.04458481     -2.32361197   -1.35750737   -0.65510322      0.00000000    0.00000000    0.00000000
    8  -28.56984530    6.57684200   20.60318220     -0.48417161   -1.39953341    0.06939756      0.00000000    0.00000000    0.00000000
    1  -27.92626955    6.75009859   21.33186174     -0.79803819    1.48221236   -1.67238540      0.00000000    0.00000000    0.00000000
    1  -28.77795491    7.33974200   20.00125135      1.18466293   -0.64620522    1.70053511      0.00000000    0.00000000    0.00000000
    8  -16.52920860    7.93709241  -13.64215732     -0.75096877    2.66499737   -0.89140091      0.00000000    0.00000000    0.00000000
    1  -17.07880582    7.11527030  -13.59193177      2.91302446   -0.32706824    0.29427820      0.00000000    0.00000000    0.00000000
    1  -15.53891689    7.90058638  -13.49660885     -2.29089453   -2.43204898    0.11430777      0.00000000    0.00000000    0.00000000
    8   81.05271138   60.19556705   41.92272443      0.40863475   -0.76327824   -0.43940886      0.00000000    0.00000000    0.00000000
    1   62.46275249   60.98447326   42.29622848    -18.68639961  -17.77076768  -11.05163124      0.00000000    0.00000000    0.00000000
    1   80.22799354   59.80599385   42.38621857      2.18248489    2.20136255    0.59179494      0.00000000    0.00000000    0.00000000
    8   -1.12007539   28.26018687  -18.84497788      0.22515960   -1.82372852   -0.26477737      0.00000000    0.00000000    0.00000000
    1   -2.02372115   28.67121640  -18.80589000      2.23871572    1.12015517    0.06193974      0.00000000    0.00000000    0.00000000
    1   -0.34127053   28.86907542  -18.81857159     -3.29736202    0.62101923    1.36099053      0.00000000    0.00000000    0.00000000
    8    0.46784435    9.96972882  -26.31809587     -0.67437996    0.63266031    0.00071173      0.00000000    0.00000000    0.00000000
    1    1.25782801    9.40322807  -26.04674802     -2.91975865   -0.75426789   -1.16058039      0.00000000    0.00000000    0.00000000
    1   -0.40978909    9.48902400  -26.49656393      2.04399713   -4.59198574   -4.25255050      0.00000000    0.00000000    0.00000000
    8   -4.92324836    1.79708873  -11.16865139     -1.70884233   -0.69830679    0.03877931      0.00000000    0.00000000    0.00000000
    1   -4.91178685    2.77146572  -11.05805669      1.74020256   -1.93351604    0.46049721      0.00000000    0.00000000    0.00000000
    1   -4.04634243    1.33008185  -11.15134104     -1.21275771    2.14793030    0.47388593      0.00000000    0.00000000    0.00000000
    8    1.06871633    3.11373467  -12.29392751      0.50072128    0.21420920   -3.08693543      0.00000000    0.00000000    0.00000000
    1    0.18218066    2.70426534  -12.48884630      1.39425213   -0.28475751    3.51899240      0.00000000    0.00000000    0.00000000
    1    1.15337475    3.80885501  -11.59997636     -2.29341041   -1.41210961   -0.76231891      0.00000000    0.00000000    0.00000000
    8    1.45698275   -2.22665421  -61.98641520     -0.07724083    3.71279454   -2.28254089      0.00000000    0.00000000    0.00000000
    1    1.91938396   -3.04391584  -62.28636639     -1.61874224   -0.43504100    3.19864016      0.00000000    0.00000000    0.00000000
    1    0.94242832   -2.12614476  -61.13640743      1.54551740   -2.55625272   -0.99768730      0.00000000    0.00000000    0.00000000
    8   -0.95269850    1.94311986  -30.21920885      0.07052313   -0.71593910   -4.14579261      0.00000000    0.00000000    0.00000000
    1   -0.01736773    2.01771399  -29.89177018     -1.53934426   -1.51024094    0.89008538      0.00000000    0.00000000    0.00000000
    1   -1.52273775    1.24989144  -29.81899206      2.02361078    0.10601452    0.03876589      0.00000000    0.00000000    0.00000000
    8   83.87308240   71.43079043   17.93880411      1.17705534    0.47159167   -0.13663694      0.00000000    0.00000000    0.00000000
    1   83.48929401   71.17220624   -0.18167453     -0.89897781   -0.02659686   -2.38573595      0.00000000    0.00000000    0.00000000
    1   83.28260997   71.31233339   17.14709081     -0.27343896   -0.43598042    2.52520382      0.00000000    0.00000000    0.00000000
    8   -4.14270985    7.41454056    7.52595063      0.93992629    5.61466399   -0.45992850      0.00000000    0.00000000    0.00000000
    1   -4.90218826    6.85263674    7.64256684      2.21680108   -1.58943928   -0.38183048      0.00000000    0.00000000    0.00000000
    1   -3.20711638    7.08253285    7.52900873     -3.12517555   -1.66127432    0.00295165      0.00000000    0.00000000    0.00000000
    8   -0.40942734    7.21638995    6.82299228     -0.61824212    1.42739494    1.12494526      0.00000000    0.00000000    0.00000000
    1    0.09196886    7.42739851    5.97863705     -0.32268718   -1.94997740    1.04005046      0.00000000    0.00000000    0.00000000
    1   -0.29211731    6.30697143    7.19128130      0.89732277    1.62368271   -3.19647647      0.00000000    0.00000000    0.00000000
    8    0.39821997    0.31205662  -42.40036052     -0.28074445   -0.09618941   -1.03673131      0.00000000    0.00000000    0.00000000
    1    0.59680095    1.10185892  -41.81375135      0.14110925   -2.94723404    0.11576277      0.00000000    0.00000000    0.00000000
    1    0.58323134   -0.58535183  -42.02122783      0.30611465    2.28414314    1.02505255      0.00000000    0.00000000    0.00000000
    8   48.43631098   29.93400158  -14.75160628      0.51600853    1.36440582   -0.02375345      0.00000000    0.00000000    0.00000000
    1   48.84896956   29.23829848  -14.17838972     -1.92674461   -0.09729239   -1.56757084      0.00000000    0.00000000    0.00000000
    1   47.66157553   29.65123269  -15.30116681      1.39134333   -1.01073516    1.60840408      0.00000000    0.00000000    0.00000000
    8    1.32863435   15.10869297   44.92244674     -0.44264895   -0.13086329    1.31874935      0.00000000    0.00000000    0.00000000
    1    2.27593437   14.93574931   44.68148574     -2.00091596    0.69323545   -1.36996642      0.00000000    0.00000000    0.00000000
    1    0.72558976   15.37530678   44.18112639      2.44338187   -0.56239118    0.05035396      0.00000000    0.00000000    0.00000000
    8  -13.36573318   10.16686741   16.28256732     -1.41427397    0.54033026    0.91395510      0.00000000    0.00000000    0.00000000
    1  -13.00292701    9.25649118   16.41549531      0.84237472    1.76282698   -1.49909401      0.00000000    0.00000000    0.00000000
    1  -12.88531870   10.75298628   15.64912167      0.56265789   -2.31169293    0.58320753      0.00000000    0.00000000    0.00000000
    8    1.66120698    4.12794851   13.00440940      2.67843930    1.29639228    1.09662863      0.00000000    0.00000000    0.00000000
    1    1.40031221    3.19802979   12.79074389     -0.82400711    2.52534198   -0.34213108      0.00000000    0.00000000    0.00000000
    1   19.97576779    4.82363625   12.93767202     -0.78216466   -2.45723068   -0.72120069      0.00000000    0.00000000    0.00000000
    8   -0.36832574    0.68696152  -16.87547343     -0.27700196   -0.82660066   -0.36813067      0.00000000    0.00000000    0.00000000
    1   -1.15241796    1.06268573  -16.37822623      1.14310267    0.75689383    0.07313042      0.00000000    0.00000000    0.00000000
    1    0.49005292    1.18707352  -16.78357886     -2.44070349    0.27187383    0.86075056      0.00000000    0.00000000    0.00000000
    8   38.38965024  -33.70124886  -29.00539314     23.33703048  -16.12154445    0.47389347      0.00000000    0.00000000    0.00000000
    1   38.65902042  -32.80632318  -29.34827826     16.83198493   -9.17627376   19.20749891      0.00000000    0.00000000    0.00000000
    1   37.48161919  -33.81642535  -28.55018994      1.05729563    2.67692527   -1.26281628      0.00000000    0.00000000    0.00000000
    8  -33.34910926   35.69991424   23.44974184    -14.09387507  -47.44532599  856.57729003      0.00000000    0.00000000    0.00000000
    1  -33.63041545   34.74488979    4.42319562     13.33070489   43.52046731 -864.49196619      0.00000000    0.00000000    0.00000000
    1  -33.19817727   36.28287815   22.63152204      2.85284809    5.31841551    3.12397394      0.00000000    0.00000000    0.00000000
    8   21.73710986    8.12349885  -29.24254271      1.69158516   -2.32561727   -0.88419816      0.00000000    0.00000000    0.00000000
    1   21.67399871    7.69906683  -28.32835629     -2.29237331    1.41254734   -0.35820984      0.00000000    0.00000000    0.00000000
    1   21.01705143    8.69275746  -29.58646887     -0.50479028   -1.02722005    2.63085722      0.00000000    0.00000000    0.00000000
    8  -19.71245433    3.88085585    7.59292930      1.72722130  -17.09826998   -6.50924564      0.00000000    0.00000000    0.00000000
    1  -19.65599591    4.87878024    7.61459980      0.85858181   -1.83676570   -1.93077012      0.00000000    0.00000000    0.00000000
    1  -19.63392599    3.38086626    6.79877869      0.78840373    2.56947998   -0.83199805      0.00000000    0.00000000    0.00000000
    8   20.89584380  -13.16199699   15.66725784      0.30828559    0.81476759    0.38689829      0.00000000    0.00000000    0.00000000
    1   19.92515691  -13.33030779   15.54191757      2.12590105   -1.15841569   -0.91518105      0.00000000    0.00000000    0.00000000
    1   21.51519513  -13.76584839   15.18496978     -2.44959105    0.17451998    0.31230729      0.00000000    0.00000000    0.00000000
    8   44.77216489  -32.24952819   14.65695781      2.32675754   -3.07181578   -1.98858657      0.00000000    0.00000000    0.00000000
    1   44.32662456  -31.53549605   14.15982183     -0.62554567    0.45436189    3.12666735      0.00000000    0.00000000    0.00000000
    1   44.73953333  -32.34288020   15.63678891     -1.70121187    2.61745389   -1.13808078      0.00000000    0.00000000    0.00000000
    8  -49.00233149  -84.15984143  -66.03541858      2.21169636   -0.84118360   -0.23984418      0.00000000    0.00000000    0.00000000
    1  -49.12292827  -83.18523441  -66.23594878     -2.14374027   -2.21294215    0.87427229      0.00000000    0.00000000    0.00000000
    1  -49.77531206  -84.72297167  -65.77716118     -0.39049829    3.40099618   -0.27250140      0.00000000    0.00000000    0.00000000
    8   -0.78014734    6.35803367   -6.76258033      5.12549686    0.22778187   -2.36111472      0.00000000    0.00000000    0.00000000
    1   -0.36065700    6.93377085   -6.11051144     -2.27742700    2.98724203   -1.65658403      0.00000000    0.00000000    0.00000000
    1   -1.39363209    6.61517256   -7.47717480     -0.26891966    6.43807590    3.73294045      0.00000000    0.00000000    0.00000000
    8   -0.74252053    2.86476857   -5.75151994     -6.87785602   -8.24229735   -2.70679462      0.00000000    0.00000000    0.00000000
    1   -0.80916241    3.86527611   -5.85212991      3.10790256   -0.98937570    0.70377283      0.00000000    0.00000000    0.00000000
    1    0.09767864    2.39882003   -5.62802516     -4.37336915   -2.18058445    0.98910015      0.00000000    0.00000000    0.00000000
    8   -6.58920020    4.80843295  -11.49923049      3.87432791   -5.08924018   -1.27721070      0.00000000    0.00000000    0.00000000
    1   -6.37772820    5.65013303  -10.98405511      1.45291434   -1.43064753   -1.30600967      0.00000000    0.00000000    0.00000000
    1   -5.90934467    4.29448321  -11.93053167      1.86567059    2.18533232    0.62130936      0.00000000    0.00000000    0.00000000
    8   27.69686069   26.49867128    3.34434862  ******************************************      0.00000000    0.00000000    0.00000000
    1   28.49390742   26.05346567    3.74100171     -2.87713714   -0.11151811    0.93660348      0.00000000    0.00000000    0.00000000
    1   26.82512098   26.35263985    3.70240794      0.78867222   -1.52855621    1.89321806      0.00000000    0.00000000    0.00000000
    8  -29.48112438  -10.67468658   37.61340529     -0.12199166   -1.11102653   -0.01989391      0.00000000    0.00000000    0.00000000
    1  -28.86330310  -10.34756323   38.31803484     -1.42753851    1.67634757   -2.02562763      0.00000000    0.00000000    0.00000000
    1  -29.90851862   -9.97782481   37.04265901      1.64501721   -0.00014658    1.95007290      0.00000000    0.00000000    0.00000000
    8  -19.09115988   14.84450968  -26.39245875      0.02629026    1.22423944    1.01869502      0.00000000    0.00000000    0.00000000
    1  -19.51842954   14.88567255  -27.28467637      1.11204912   -1.91669321    1.10685843      0.00000000    0.00000000    0.00000000
    1  -18.70021924   13.97662951  -26.12546448     -1.14304491    0.66286057   -2.12808214      0.00000000    0.00000000    0.00000000
    8   55.24692333  -12.18106039  -28.43030382      1.46031554   -0.00560252   -0.08301784      0.00000000    0.00000000    0.00000000
    1   54.77419363  -13.05430153  -28.45225510     -0.91246388    2.41632357    0.05806253      0.00000000    0.00000000    0.00000000
    1   54.67300787  -11.36806001  -28.43110410     -0.49293101   -2.50367670   -0.02783411      0.00000000    0.00000000    0.00000000
    8   29.55782215   -1.64050372   -5.06808517      2.27487769   -0.64195864   -3.43003983      0.00000000    0.00000000    0.00000000
    1   28.98400238   -2.32022333   -4.65899325     -0.19567546    2.71873212    1.73344705      0.00000000    0.00000000    0.00000000
    1   29.66477424   -0.72186891   -4.71617691     -2.08141013   -2.07787301    1.69677307      0.00000000    0.00000000    0.00000000
    8    0.70973795    3.52523648    7.57495636      0.58621122   -0.37833842   -0.71957725      0.00000000    0.00000000    0.00000000
    1   -0.17757247    3.08395629    7.60213896      1.01978449    1.56043871    1.95359530      0.00000000    0.00000000    0.00000000
    1    0.74496466    4.48938844    7.77398909     -2.41039938   -2.32606359   -1.08193749      0.00000000    0.00000000    0.00000000
    8    1.22554620    4.19776129   -8.47809164      0.33652921   -1.15284734   -1.02769414      0.00000000    0.00000000    0.00000000
    1    2.02317693    4.77150873   -8.30974038     -2.46522042    0.36308639    0.38608665      0.00000000    0.00000000    0.00000000
    1    0.33905467    4.59372827   -8.31138689      2.05509233    1.04709591    0.80032728      0.00000000    0.00000000    0.00000000
    8    3.02809574    8.09100294  -25.20069808      0.04105771    0.32121104   -1.93853269      0.00000000    0.00000000    0.00000000
    1    2.90750704    7.27921842  -24.64935873      0.67173276    2.26869038    1.05977523      0.00000000    0.00000000    0.00000000
    1    3.20396613    8.94673603  -24.72437655     -0.34596523   -2.47922784    0.95098937      0.00000000    0.00000000    0.00000000
    8   -3.69711800    4.55428919  -11.41145540      1.48007644    1.13448983    1.72981887      0.00000000    0.00000000    0.00000000
    1   -4.57458274    4.09684095  -11.40823422      8.53874810    3.85760275    1.82768212      0.00000000    0.00000000    0.00000000
    1   -2.87519710    4.04389847  -11.32956950     -0.98020540   -1.66958719    0.29708668      0.00000000    0.00000000    0.00000000
    8   -6.61482454    7.84403143    9.42386614      0.61237218    0.30197481    0.96937380      0.00000000    0.00000000    0.00000000
    1   -6.29630491    7.11034374    8.85027059     -2.54279888    1.82561398    0.30505361      0.00000000    0.00000000    0.00000000
    1   -7.51948204    8.20627925    9.22513984      1.36734128   -1.73405867   -1.00233204      0.00000000    0.00000000    0.00000000
    8  -23.05432001    2.01517925  -15.84189168     -1.64161321    0.22446264    0.75007931      0.00000000    0.00000000    0.00000000
    1  -23.04280695    2.08059981  -16.83266051      2.09315198   -0.46123172    1.59904491      0.00000000    0.00000000    0.00000000
    1  -22.20270284    1.79862872  -15.38273136     -0.37399403    0.93283687   -0.65544555      0.00000000    0.00000000    0.00000000
    8   14.53541761    8.91549869  -45.47378926      0.10981224   -1.21418818   -0.35239645      0.00000000    0.00000000    0.00000000
    1   15.34580266    9.40936258  -45.17653185     -2.37068855    0.68663304   -0.33161214      0.00000000    0.00000000    0.00000000
    1   13.69317518    9.43718008  -45.52198951      2.82981856    0.66452526    0.90296917      0.00000000    0.00000000    0.00000000
    8  -49.34229816  -67.73514842  -48.08726112      0.95115977   -0.15067955   -1.48339306      0.00000000    0.00000000    0.00000000
    1  -49.43365222  -66.85103145  -47.63877311     -0.57005918   -2.31432513    0.18602036      0.00000000    0.00000000    0.00000000
    1  -49.87474719  -68.47911905  -47.72981575     -0.05855838    2.11813426    0.93544600      0.00000000    0.00000000    0.00000000
    8   19.77155242   25.28735048   -9.94143081      0.04291948   -0.71187573    1.21208395      0.00000000    0.00000000    0.00000000
    1   20.67269174   25.38398925  -10.38790392     -3.17482743    0.58269303   -1.22898060      0.00000000    0.00000000    0.00000000
    1   19.03255042   24.94316292  -10.46540052      2.84619247   -0.37807505   -1.46742833      0.00000000    0.00000000    0.00000000
    8   -2.62090546    0.75985916    2.93987713     -1.14616528   -1.54394198    0.79202061      0.00000000    0.00000000    0.00000000
    1   -3.24695024    1.43740051    2.56095593      2.31978244   -0.67146633   -1.82598500      0.00000000    0.00000000    0.00000000
    1   -1.63736727    0.91665266    2.88220536     -2.32164538    1.34894796   -0.76189566      0.00000000    0.00000000    0.00000000
    8   25.10098993  -16.16479542  -12.75737779      0.25376853   -1.04031009    0.21043192      0.00000000    0.00000000    0.00000000
    1   25.65325290  -15.73288635  -13.47539256     -2.23433003    0.71786436    1.83989606      0.00000000    0.00000000    0.00000000
    1   24.39603166  -15.60246860  -12.32058817      1.97248838    0.31986828   -2.04455691      0.00000000    0.00000000    0.00000000
    8  -37.77996971  103.14798653    7.72806341     -2.26994804    0.35198375    0.78578561      0.00000000    0.00000000    0.00000000
    1  -37.42686394  104.03548809    7.79691114      9.45280378  -39.72552686   -1.23337559      0.00000000    0.00000000    0.00000000
    1  -37.48600772  102.56611134    6.96072206      0.72102020    2.48113625    0.86344595      0.00000000    0.00000000    0.00000000
    8   18.42112612    4.90115275  -67.71991949      0.80560376   -1.07090688   -0.04830100      0.00000000    0.00000000    0.00000000
    1   18.72388147    5.77396765  -67.35467633     -2.18973740   -0.78985221   -0.99423272      0.00000000    0.00000000    0.00000000
    1   17.48714419    4.86363266  -68.05553808      1.38282410    1.85582783    1.03522651      0.00000000    0.00000000    0.00000000
    8   -4.83788530   -5.14463699   -2.64788154      0.85442938   -2.00562781    0.61596926      0.00000000    0.00000000    0.00000000