 BEGIN_INFO
   #
   # This is a XCRYSDEN-Structure-File
   # aimed for Visualization of Fermi Surface
   #
   # Case: Tight-binding calculation
   #
   # Launch as: xcrysden --xsf HICOLM.XSF
   #
 END_INFO
 # estrutura final
CRYSTAL
PRIMVEC
      19.00000000       0.00000000       0.00000000
       0.00000000      19.00000000       0.00000000
       0.00000000       0.00000000      19.00000000
PRIMCOORD
  801    1
    8    3.30362786   -0.82474009    0.94468575    -36.26211411   37.00929428  -37.11603633      0.00000000    0.00000000    0.00000000
    1    2.81787586    0.04596691    0.86800375     20.99934896  -37.51138503   -2.20235082      0.00000000    0.00000000    0.00000000
    1    4.20387586   -1.12045709    1.26417475    -15.11672082  -34.16230640   43.36652592      0.00000000    0.00000000    0.00000000
    8    4.89490126    7.12269941   -8.73347130    -26.58386510  -22.79072988    5.75108295      0.00000000    0.00000000    0.00000000
    1    5.65523926    6.70313641   -9.22927330      1.59921994   15.00991972    2.06822410      0.00000000    0.00000000    0.00000000
    1    4.00080626    6.82324741   -8.40047030     26.23587119   18.86448161  -12.78687656      0.00000000    0.00000000    0.00000000
    8    0.34479545   -8.45611037    0.08619727    -39.89629479   45.36736953   54.83307272      0.00000000    0.00000000    0.00000000
    1    0.71722945   -9.38414537    0.08912627     -8.01811412   33.26210601  -44.89556059      0.00000000    0.00000000    0.00000000
    1    0.72160745   -7.52984737    0.08209227     35.46511804  -37.80704484  -32.74902084      0.00000000    0.00000000    0.00000000
    8   -1.52401868   -6.33405204   -5.00303872     24.78508098   -1.67037587    0.88695617      0.00000000    0.00000000    0.00000000
    1   -0.97032568   -6.82748204   -4.33227972    -34.72334981    1.73218064  -13.85169521      0.00000000    0.00000000    0.00000000
    1   -2.04411468   -6.57416204   -5.82268172    -25.52038532   -0.69374426    5.75386296      0.00000000    0.00000000    0.00000000
    8    6.84082145    3.35474589    0.64845095      6.64124101  -21.31997020  -16.60903416      0.00000000    0.00000000    0.00000000
    1    6.36191145    3.89678489   -0.04206105     43.52466070  -19.21975965  -26.79287907      0.00000000    0.00000000    0.00000000
    1    6.59377945    2.63268789    1.29464695    -23.79155874  -25.44027259   18.59994367      0.00000000    0.00000000    0.00000000
    8 -434.64176428-5755.39528502**************      0.00000000    0.00000000    0.00000000      0.00000000    0.00000000    0.00000000
    1 -433.79804428-5755.30128802**************      0.00000000    0.00000000    0.00000000      0.00000000    0.00000000    0.00000000
    1 -435.54317728-5755.80128302**************      0.00000000    0.00000000    0.00000000      0.00000000    0.00000000    0.00000000
    8  -15.76426266  -43.09320290   -4.99434063      0.00000000    0.00000000    0.00000000      0.00000000    0.00000000    0.00000000
    1  -16.14219966  -43.09410590   -5.92015363      0.33405205    1.13580404   -0.05161132      0.00000000    0.00000000    0.00000000
    1  -16.13463166  -43.12981190   -4.06619663      0.00000000    0.00000000    0.00000000      0.00000000    0.00000000    0.00000000
    8   -5.42430194   -3.77142124   -2.63453188     -6.18983360   34.01136011   59.42015943      0.00000000    0.00000000    0.00000000
    1   -4.88934094   -3.34952624   -1.90255588      0.79465030  -21.58230336  -36.58949624      0.00000000    0.00000000    0.00000000
    1   -5.73705894   -4.69498724   -2.85628488      6.47574581   -4.70378768  -27.94045406      0.00000000    0.00000000    0.00000000
    8   -2.94294188    7.14367106    8.08097924     34.59162749    0.61565738    0.78000882      0.00000000    0.00000000    0.00000000
    1   -3.15098188    7.48990806    8.99575024     -9.85706938  -12.75976515   -2.22350802      0.00000000    0.00000000    0.00000000
    1   -3.44893488    6.67463606    7.35713924    -17.04486774    7.48785960    4.59077528      0.00000000    0.00000000    0.00000000
    8 -545.22861583 -353.67916027    5.03866846      0.00000000    0.00000000    0.00000000      0.00000000    0.00000000    0.00000000
    1 -546.15222683 -353.68038027    5.42195446      0.00000000    0.00000000    0.00000000      0.00000000    0.00000000    0.00000000
    1 -544.29800983 -353.67200327    5.40457646      0.00000000    0.00000000    0.00000000      0.00000000    0.00000000    0.00000000
    8    6.31634610    3.53142867    5.12607051    -59.81489028   30.81729875   -1.17440216      0.00000000    0.00000000    0.00000000
    1    6.71075410    3.56384467    6.04441551     26.87106181    7.05527789   -5.83084848      0.00000000    0.00000000    0.00000000
    1    6.42582810    2.95521767    4.31615651     38.68483171   14.78582408   17.81331056      0.00000000    0.00000000    0.00000000
    8   -7.50880047    9.08352564   -0.03421713     55.29556344  -70.46490855  -18.27779154      0.00000000    0.00000000    0.00000000
    1   -7.79815447   -8.96054636   -0.08364513     17.32581686  -12.44586762  -25.53895991      0.00000000    0.00000000    0.00000000
    1   -7.95947747    8.19216764   -0.08256513      5.55473177   -3.40171597  -12.12379453      0.00000000    0.00000000    0.00000000
    8   -0.20317978   -6.47523316   -1.91492486   -112.53481027  -46.03384715  -49.55098619      0.00000000    0.00000000    0.00000000
    1    0.79443822   -6.42199316   -1.95840786    -11.97809944    0.39812306  -11.45059051      0.00000000    0.00000000    0.00000000
    1   -0.88149378   -7.20495816   -1.82914486    -18.01013158    1.61997662  -25.09754416      0.00000000    0.00000000    0.00000000
    8   -5.90836531   -2.24271805    0.94851954     36.78927142   70.63731644   -2.50596733      0.00000000    0.00000000    0.00000000
    1   -5.92729531   -2.91151105    1.69170554    -12.01559273   -0.08264291   16.04609323      0.00000000    0.00000000    0.00000000
    1   -5.67800731   -2.25499405   -0.02449146     -3.95854359  -33.79242516  -16.22384054      0.00000000    0.00000000    0.00000000
    8   -1.70194467    2.95004951    3.31132275     43.32511683    4.70641985  -23.35274237      0.00000000    0.00000000    0.00000000
    1   -2.25520067    3.21506351    2.52161275     -7.95814478   18.59654562   27.58648049      0.00000000    0.00000000    0.00000000
    1   -1.23669467    3.42776551    4.05650475    -31.77988011   13.94979230   -5.91059015      0.00000000    0.00000000    0.00000000
    8    4.76885566   -6.11378498    2.08126038    -65.03080063    4.12569078   32.44563373      0.00000000    0.00000000    0.00000000
    1    4.06582766   -6.61970498    1.58149838     18.02258208   25.68516590   26.02271377      0.00000000    0.00000000    0.00000000
    1    4.86712266   -5.18721998    2.44428538      1.64130051   10.49809313   21.11115529      0.00000000    0.00000000    0.00000000
    8    7.65054024   -6.59580885    6.91006438     20.75634885    3.27820491   -4.41058157      0.00000000    0.00000000    0.00000000
    1    7.34499524   -5.65602685    6.75703338     -1.07301289   -6.51535596   -2.74025413      0.00000000    0.00000000    0.00000000
    1    7.20889024   -7.48017885    7.06106538     -5.14585336    1.58917915    5.35058616      0.00000000    0.00000000    0.00000000
    8   -2.14547954    1.12108946 -249.84608037      0.00000000    0.00000000    0.00000000      0.00000000    0.00000000    0.00000000
    1   -1.80069454    1.93042946 -250.32153637      0.00000000    0.00000000    0.00000000      0.00000000    0.00000000    0.00000000
    1   -1.97135154    0.67343046 -248.96901337      0.00000000    0.00000000    0.00000000      0.00000000    0.00000000    0.00000000
    8    2.70004344   -0.19207486    3.90136648    -29.61367164  -23.98849711   69.55365367      0.00000000    0.00000000    0.00000000
    1    2.87616244    0.69639914    3.47761748     11.63143192  -30.44216344   36.28706140      0.00000000    0.00000000    0.00000000
    1    3.18913544   -1.06065286    3.98091348     15.50562078  -20.45205871   -2.83645530      0.00000000    0.00000000    0.00000000
    8    0.05901271   -4.34219952   -6.72264867      2.10139924   19.25423040    2.99257542      0.00000000    0.00000000    0.00000000
    1   -0.86568129   -4.06789552   -6.98659067     -7.66472502  -17.42416793   10.15766421      0.00000000    0.00000000    0.00000000
    1    0.90677471   -3.87147252   -6.47834967    -21.36822876  -18.23272416    1.95665671      0.00000000    0.00000000    0.00000000
    8    6.72237205    5.97403409    1.37303038    -14.07523173  -85.37605554   25.76589370      0.00000000    0.00000000    0.00000000
    1    5.93513105    6.59065109    1.37211838     46.12003839  -28.79786063   39.88339913      0.00000000    0.00000000    0.00000000
    1    7.71699805    6.07739409    1.37462538    -19.51704617  -27.59765292   18.98312149      0.00000000    0.00000000    0.00000000
    8   -4.71744470   -4.14856815    1.20157213    155.59958521  -16.97708357  107.50070607      0.00000000    0.00000000    0.00000000
    1   -5.66587070   -4.46412915    1.17195613     10.75242423   10.07222135    4.14084441      0.00000000    0.00000000    0.00000000
    1   -4.25443470   -3.26240115    1.21874013    -23.57295365   -8.62168310   -3.81192173      0.00000000    0.00000000    0.00000000
    8   -1.71443290    6.53328405   -5.55672934      2.46176156   35.68911598   48.08542196      0.00000000    0.00000000    0.00000000
    1   -1.99024490    5.82266805   -6.20396934    -39.73395025   15.41579547    1.42088690      0.00000000    0.00000000    0.00000000
    1   -1.19408590    6.56631705   -4.70343334    -18.81893055  -10.92653046   -5.24946511      0.00000000    0.00000000    0.00000000
    8-1779.00861644   -3.24045154-1944.86889251      0.00000000    0.00000000    0.00000000      0.00000000    0.00000000    0.00000000
    1-1778.41980844   -3.87096454-1945.37458551      0.00000000    0.00000000    0.00000000      0.00000000    0.00000000    0.00000000
    1-1778.97157544   -2.77378854-1943.98525151      0.00000000    0.00000000    0.00000000      0.00000000    0.00000000    0.00000000
    8    2.70546903    2.56674827   -1.62097356     61.02273132   -5.76068114   -0.07288150      0.00000000    0.00000000    0.00000000
    1    3.53930903    2.34304027   -2.12558556     -8.95847971   59.85711779  -18.85693932      0.00000000    0.00000000    0.00000000
    1    2.20051003    2.17036627   -0.85425156      0.39792966   27.21072631  -22.87667944      0.00000000    0.00000000    0.00000000
    8  -39.24975239    1.29354146 -191.36054159      0.00000000    0.00000000    0.00000000      0.00000000    0.00000000    0.00000000
    1  -38.41364439    1.29841446 -191.90905559      0.00000000    0.00000000    0.00000000      0.00000000    0.00000000    0.00000000
    1  -40.23222639    1.29903546 -191.54677059      0.00000000    0.00000000    0.00000000      0.00000000    0.00000000    0.00000000
    8    3.01269321   -4.60716750    4.78281253    -57.49580968   -8.08206145    4.25222768      0.00000000    0.00000000    0.00000000
    1    2.97403421   -5.57100150    4.51918953     33.58745965   16.51107114    3.67093541      0.00000000    0.00000000    0.00000000
    1    2.97120421   -3.72893450    4.30641753     20.72563978  -10.84094944   -1.45598110      0.00000000    0.00000000    0.00000000
    8    0.68569541    4.77500044  -23.95846832     44.98928623  -13.14509117  -27.59036926      0.00000000    0.00000000    0.00000000
    1    1.06010641    5.67834744  -24.16763132     -7.36703884    0.74458691   75.16993716      0.00000000    0.00000000    0.00000000
    1    1.06035341    3.86816544  -23.76547232     -4.61255436   13.61265967   55.20829044      0.00000000    0.00000000    0.00000000
    8   -9.54629378   -5.85764100   -2.99955652    -63.06463199  -18.76470772  -21.72196891      0.00000000    0.00000000    0.00000000
    1  -10.46714578   -6.22340300   -3.13453052     35.40478149    1.62062996   13.22389858      0.00000000    0.00000000    0.00000000
    1   -8.65785878   -6.22793400   -2.72838852     12.58227668    9.65931169  -32.29885552      0.00000000    0.00000000    0.00000000
    8  -10.99334933   -0.43897624   -6.58103704    -36.11437401  -43.23244594   -5.59754797      0.00000000    0.00000000    0.00000000
    1    7.20528767   -0.77236024   -7.07766404     19.87008599  -25.80867649  -13.06196057      0.00000000    0.00000000    0.00000000
    1  -10.06772333   -0.77254524   -6.40238704     21.72613942   -0.11140966  -29.76368625      0.00000000    0.00000000    0.00000000
    8   -2.61124387    4.36813761   -9.17935976     20.59692865  -60.32472702   -1.83707590      0.00000000    0.00000000    0.00000000
    1   -1.76330487    4.89803361   -9.19260976    -38.93118666   34.52381721    7.44589853      0.00000000    0.00000000    0.00000000
    1   -3.53999387    4.48815761    9.46994624     -8.94667902   35.37013484   -6.68530187      0.00000000    0.00000000    0.00000000
    8    9.48088013    4.58257592    7.12427835      6.36767243    5.02824869   11.81062730      0.00000000    0.00000000    0.00000000
    1    8.86489913    5.36775392    7.18775535      1.57884308   -5.29455393   -4.18450897      0.00000000    0.00000000    0.00000000
    1   -8.58210987    4.37867592    7.40783535    -12.28316327    1.67448684   -7.94157611      0.00000000    0.00000000    0.00000000
    8   -5.98219789    6.44562249    9.40664279     -3.89515219   -2.84884273   15.71019265      0.00000000    0.00000000    0.00000000
    1   -6.44112789    7.24173949   -9.19896221      1.89185970  -13.64146371   -9.38711045      0.00000000    0.00000000    0.00000000
    1   -6.15075089    5.82388049    8.64179479     -1.43227224    6.86390777    0.34434096      0.00000000    0.00000000    0.00000000
    8    8.70351708    1.11055250   -2.17525911     30.06078672  -24.80857131    0.59911649      0.00000000    0.00000000    0.00000000
    1    8.29775108    0.32235150   -1.71259111     22.06407554   20.15634949    0.11903575      0.00000000    0.00000000    0.00000000
    1    9.37565108    1.25029350   -2.90235911     -9.28422116   13.99279621    7.76126112      0.00000000    0.00000000    0.00000000
    8   -2.79558190    0.74459635    3.33225611     28.26368684  -63.94721117 -107.91280724      0.00000000    0.00000000    0.00000000
    1   -2.04251690    0.97916235    3.94694111     -9.51183948   53.44277380  -28.36111718      0.00000000    0.00000000    0.00000000
    1   -3.05487590    0.97097035    2.39338011     27.00110890  -14.91181602   56.69451622      0.00000000    0.00000000    0.00000000
    8   -3.68365959    4.96936464   -3.91874663     -7.75590905  -37.96587724   47.08640730      0.00000000    0.00000000    0.00000000
    1   -4.43954159    5.62206264   -3.96967763      6.99181309   14.05672181  -25.92778074      0.00000000    0.00000000    0.00000000
    1   -3.57592459    4.01342764   -3.64571563      5.80043621   35.21784972  -34.93599902      0.00000000    0.00000000    0.00000000
    8   -6.59220411    1.18994085  -13.39555512     13.03326884  -12.48548385  -72.90126774      0.00000000    0.00000000    0.00000000
    1   -7.28626411    0.62926985  -13.84710212     -8.61734008  -12.89782163   48.66157551      0.00000000    0.00000000    0.00000000
    1   -5.76723611    1.01801285  -12.85719212     -5.44064538   -1.59190608   35.44006511      0.00000000    0.00000000    0.00000000
    8   -9.02990313   -7.60270699   -1.28062108     -7.53738495  -23.57844324   87.02069178      0.00000000    0.00000000    0.00000000
    1   -8.33027213   -7.52616799   -1.99099008      6.90341366   -8.69664171  -22.16779648      0.00000000    0.00000000    0.00000000
    1    8.98209087   -7.45853299   -1.22561508      7.27420417   16.47570589  -38.49506361      0.00000000    0.00000000    0.00000000
    8    5.27275185   -3.69342190   -5.45139878    -18.95531014   51.54275858   25.93286376      0.00000000    0.00000000    0.00000000
    1    5.58594085   -3.24846190   -6.29037978      8.06176995  -32.94213168   -2.94545751      0.00000000    0.00000000    0.00000000
    1    5.70300385   -4.04559590   -4.62024078      5.48864775  -21.38502008  -18.62863127      0.00000000    0.00000000    0.00000000
    8   -3.09397921   -8.58242837    0.46132693     67.89546679   61.62619735   65.07107798      0.00000000    0.00000000    0.00000000
    1   -3.68373821   -8.44229237    1.25663393    -13.68696991   11.43502943   -5.99150912      0.00000000    0.00000000    0.00000000
    1   -2.40873621   -9.25572937    0.18370193    -49.53497159   52.56462644  -52.85418595      0.00000000    0.00000000    0.00000000
    8   -4.04353753    0.10800566    9.00058360     37.62529550   -5.05114026   49.29470548      0.00000000    0.00000000    0.00000000
    1   -4.16581053    1.05274066    9.30470860    -10.07388411   12.63207778  -58.47987107      0.00000000    0.00000000    0.00000000
    1   -4.60228053   -0.57356934    8.52811260     -6.97377409   -1.11487208  -22.99549414      0.00000000    0.00000000    0.00000000
    8   -0.21066736    2.45331436    0.40800532    -44.58317753  -81.31952702   56.79657378      0.00000000    0.00000000    0.00000000
    1   -0.23402036    3.37887336    0.03016732    -27.68585441  -31.32129125  -23.22891480      0.00000000    0.00000000    0.00000000
    1   -0.23370536    1.52457336    0.03803632    -39.96385914   18.87671092   -4.17625432      0.00000000    0.00000000    0.00000000
    8    5.48990842   -1.96762412   -1.68043041     62.63679820    1.11191274   13.98641728      0.00000000    0.00000000    0.00000000
    1    5.94544142   -1.92512812   -2.56961541      5.27977626  -45.17352061  -13.24344306      0.00000000    0.00000000    0.00000000
    1    4.54386842   -1.97462812   -1.35650641     17.58577710  -69.12810493   -7.02372914      0.00000000    0.00000000    0.00000000
    8    8.46547325   -6.62984828    2.67555249    -32.35866258  -61.13160498  -56.38879203      0.00000000    0.00000000    0.00000000
    1    7.63749825   -6.43163228    2.15101949     -6.79924630   10.09166456   50.63769498      0.00000000    0.00000000    0.00000000
    1    8.68871825   -6.77568328    3.63932649    -19.02743992    2.05733590   26.17064928      0.00000000    0.00000000    0.00000000
    8   -0.53576095   -4.73184014    3.33613731     28.65954962  -48.14591985   -5.20205915      0.00000000    0.00000000    0.00000000
    1    0.23658005   -4.79836714    2.70444931   -128.94133503   93.22926831   -1.12410393      0.00000000    0.00000000    0.00000000
    1   -0.69114695   -4.34187414    4.24374331     -6.84343833    4.60855357  -29.01741418      0.00000000    0.00000000    0.00000000
    8   -6.35789331    3.24225149   -4.49084609     -1.83342186  -60.20069061   24.94079922      0.00000000    0.00000000    0.00000000
    1   -6.52462131    3.49742649   -3.53845209      7.62334293   33.85532842  -43.97939922      0.00000000    0.00000000    0.00000000
    1   -6.79935131    2.64967449   -5.16459209     -8.14707455   29.87158640   10.62490492      0.00000000    0.00000000    0.00000000
    8   -3.43169044    0.99362382   -4.95390583    -63.56212624   10.64324314  -39.51952530      0.00000000    0.00000000    0.00000000
    1   -2.43969244    1.11743182   -4.97798483   -109.75755749    4.01328671  -77.92658203      0.00000000    0.00000000    0.00000000
    1   -4.05762344    0.22635682   -4.81435483    -12.94268175   25.99295215   24.39516316      0.00000000    0.00000000    0.00000000
    8    3.42215917   -2.11110981    6.87303979    -38.09511927   65.97564088   38.67144912      0.00000000    0.00000000    0.00000000
    1    4.04857217   -2.57271681    7.50112579      7.65209175  -29.45950024  -17.21366953      0.00000000    0.00000000    0.00000000
    1    3.34475017   -1.19585681    6.47770779     21.63133142  -43.51612143  -20.31451271      0.00000000    0.00000000    0.00000000
    8   -1.11269804    9.40598599    2.62106599    -97.36871337   60.07029103   39.57992526      0.00000000    0.00000000    0.00000000
    1   -1.18772404   -8.59823301    2.56854099    -50.63262574   10.72241682   -8.80071902      0.00000000    0.00000000    0.00000000
    1   -1.75107604    8.63891599    2.68465999    -41.67154733    4.69934101   21.07188559      0.00000000    0.00000000    0.00000000
    8    0.46868695    8.42863685    4.00346439    126.18227835   20.51024502  -11.80164341      0.00000000    0.00000000    0.00000000
    1    0.92784695    9.08238185    4.60492639      3.63014519    4.55141929   11.30235555      0.00000000    0.00000000    0.00000000
    1    0.14727695    8.42532385    3.05654739    -45.46517016   40.16059163   23.81130262      0.00000000    0.00000000    0.00000000
    8    1.26020624   -5.15712207    7.67886253     16.40121059   -9.29098618  -58.73407781      0.00000000    0.00000000    0.00000000
    1    0.62143424   -4.63263807    8.24176053     48.55523887   -9.82039736  -34.44105402      0.00000000    0.00000000    0.00000000
    1    1.23098224   -6.01680007    7.16889553     25.34271905   21.80015836    7.95119132      0.00000000    0.00000000    0.00000000
    8    1.14308526    9.04360299   -3.25329301     64.53340246    2.34304600   88.92838843      0.00000000    0.00000000    0.00000000
    1    1.44750926   -9.00402501   -3.23650901    -40.25770483   12.62559764  -17.76892204      0.00000000    0.00000000    0.00000000
    1    0.56816526    8.46198399   -2.67783401    -23.71108126   -2.71747255  -16.27217219      0.00000000    0.00000000    0.00000000
    8    7.46297497    3.25071273    9.02520771    -40.93812243  -62.64789212   38.34751044      0.00000000    0.00000000    0.00000000
    1    7.40469797    2.25246973    9.03423471     26.63168470   44.07411374  -28.40596677      0.00000000    0.00000000    0.00000000
    1    6.81152397    4.00935073    9.03210871     24.42548134   21.36987540  -12.62051651      0.00000000    0.00000000    0.00000000
    8    1.23361854    4.26417113   -8.88637589     -0.48148131   66.99433610   39.29392092      0.00000000    0.00000000    0.00000000
    1    1.22464354    3.52375713   -8.21430889     -4.22157210   29.68412487   12.62514242      0.00000000    0.00000000    0.00000000
    1    1.23307954    4.32992113    9.11580511     15.75279637   25.26245017    1.54665034      0.00000000    0.00000000    0.00000000
    8   -7.22773787   -7.50198920    2.73790946    -39.02644318   -0.59686150   45.64925953      0.00000000    0.00000000    0.00000000
    1   -6.53702487   -8.21803520    2.63711146      4.45058574    5.19069210   23.88340239      0.00000000    0.00000000    0.00000000
    1   -7.22299187   -6.50717720    2.83935746     22.28430514   -6.24337686   26.27524955      0.00000000    0.00000000    0.00000000
    8    3.54382746 -618.46488936    1.18112746      0.00000000    0.00000000    0.00000000      0.00000000    0.00000000    0.00000000
    1    3.09129746 -617.57988536    1.29044546      0.00000000    0.00000000    0.00000000      0.00000000    0.00000000    0.00000000
    1    3.28062346 -619.42448536    1.28046246      0.00000000    0.00000000    0.00000000      0.00000000    0.00000000    0.00000000
    8    6.07911622   -2.85321117    4.43788033     27.82655511   45.63016063  -23.36252952      0.00000000    0.00000000    0.00000000
    1    6.01342022   -3.79406817    4.77020333    -11.19140355  -10.53232573    8.14629026      0.00000000    0.00000000    0.00000000
    1    5.81248222   -1.95068017    4.77597833    -13.56792557  -43.39455362    4.49858018      0.00000000    0.00000000    0.00000000
    8    0.79277722   -8.40735398    3.22205662      8.44480160   52.07000531  100.34063484      0.00000000    0.00000000    0.00000000
    1    1.72742822   -8.09371598    3.38946262      6.60303288   21.64347134   46.51917512      0.00000000    0.00000000    0.00000000
    1   -0.11107378   -8.20970498    3.60147162    -10.87423445  -14.56255599   -1.88603104      0.00000000    0.00000000    0.00000000
    8   -7.58374446    6.30570098   -6.16787578    -17.87927581   10.82743369   15.03928955      0.00000000    0.00000000    0.00000000
    1   -7.79930146    5.33441998   -6.26845378     13.48175740   12.94534274   -3.93729814      0.00000000    0.00000000    0.00000000
    1   -8.08316646    7.16687098   -6.26238078     10.38846913  -11.46699260   -7.70500804      0.00000000    0.00000000    0.00000000
    8   -6.58024790   -7.71906934    0.50310985    -37.98406883  -80.72479325  -71.35448949      0.00000000    0.00000000    0.00000000
    1   -5.79566890   -8.21043034    0.88121785     -2.17954635    1.69132722    5.34005435      0.00000000    0.00000000    0.00000000
    1   -7.37261590   -7.23489034    0.87417685     16.44250832  -20.84109880   21.86690857      0.00000000    0.00000000    0.00000000
    8    1.30324646 -444.87066639   -3.56908654      0.00000000    0.00000000    0.00000000      0.00000000    0.00000000    0.00000000
    1    1.29503046 -444.28811939   -4.38182154      0.00000000    0.00000000    0.00000000      0.00000000    0.00000000    0.00000000
    1    0.65594646 -445.10069539   -2.84241154      0.00000000    0.00000000    0.00000000      0.00000000    0.00000000    0.00000000
    8   -8.18743647   -1.90769041    0.96003078   -106.58215518   49.45847869  -59.07270117      0.00000000    0.00000000    0.00000000
    1   -9.17854647   -1.90643041    0.82711778      1.54020818  -24.33590235   18.67226002      0.00000000    0.00000000    0.00000000
    1   -7.40304847   -1.46379241    0.52683678      1.74237563  -49.37722980   11.62129384      0.00000000    0.00000000    0.00000000
    8    4.68270330    3.90582365    1.02209654    -92.94527510   13.98166681   82.33169777      0.00000000    0.00000000    0.00000000
    1    4.21878330    3.03007465    1.15554554     28.53713692    3.26797747    2.85179648      0.00000000    0.00000000    0.00000000
    1    5.61945330    4.20267865    0.83677354     43.83702401    1.36971737   26.35206656      0.00000000    0.00000000    0.00000000
    8   -3.30110779   -2.11743874   -7.82073291     12.59039328   54.78195744   16.72457654      0.00000000    0.00000000    0.00000000
    1   -3.41669279   -1.71132974   -6.91426591     -6.50076356  -30.09245487  -15.65239491      0.00000000    0.00000000    0.00000000
    1   -3.13744079   -1.77608474   -8.74629091    -18.24196450  -24.88816249    1.63028116      0.00000000    0.00000000    0.00000000
    8   -3.94812432   -8.89000633   -9.97634088     -8.47910210   32.51249653   64.54387361      0.00000000    0.00000000    0.00000000
    1   -4.09297832   -9.87944233   -9.97716088    -15.52695725  -10.46290414  -10.62134804      0.00000000    0.00000000    0.00000000
    1   -4.24419132   -8.12017233   -9.41094988    -13.34869072   -7.44869691  -11.58931648      0.00000000    0.00000000    0.00000000
    8   -7.26258699   -1.94934657   -7.97733867    -13.48357646   43.37043894   -2.87574111      0.00000000    0.00000000    0.00000000
    1   -8.12823099   -1.66262157   -7.56695467     10.92334334  -24.43765019    1.40329643      0.00000000    0.00000000    0.00000000
    1   -6.29681699   -1.72275057   -7.85120367     -3.51484148  -39.81302414   -6.13655720      0.00000000    0.00000000    0.00000000
    8   -6.14102178   -2.64658719    8.11588316      7.85078528    9.76934559   -7.42888753      0.00000000    0.00000000    0.00000000
    1   -5.18633278   -2.87854519    8.30224816    -13.23492940   -6.21991934    5.93227959      0.00000000    0.00000000    0.00000000
    1   -6.65841878   -1.80665319    7.95224416     -5.12874481  -17.57501807    6.12442105      0.00000000    0.00000000    0.00000000
    8    6.02892676   -5.14074688   -9.15880929     15.03164196    6.75370856   25.49806337      0.00000000    0.00000000    0.00000000
    1    5.15964976   -4.73104788   -8.88227329      5.44530305  -17.18961125  -17.00462954      0.00000000    0.00000000    0.00000000
    1    6.34460876   -6.05484588   -9.41323629     -6.91346929    4.62481492  -15.06337497      0.00000000    0.00000000    0.00000000
    8    5.67316605   -1.83625696    0.87453406     29.51686190   29.26950882  -39.65337015      0.00000000    0.00000000    0.00000000
    1    5.50001205   -1.50897396    1.80344206     15.55383208  -39.18282948   38.75029917      0.00000000    0.00000000    0.00000000
    1    5.45837405   -1.52255796   -0.05035694     20.58102183  -55.27434097   15.69919739      0.00000000    0.00000000    0.00000000
    8   -5.16122058    7.10895332    0.22234239     30.39391157   36.56991134   77.14418389      0.00000000    0.00000000    0.00000000
    1   -5.02042658    8.09850232    0.25293939     -5.11849435   19.53695629    6.42151983      0.00000000    0.00000000    0.00000000
    1   -5.95025158    6.49482532    0.20670139     55.80243479   21.64375173  -38.85139846      0.00000000    0.00000000    0.00000000
    8   -8.40584164   -4.20143815   -1.76579094     23.06797762  107.38965474   26.87472250      0.00000000    0.00000000    0.00000000
    1   -9.29102664   -4.38743115   -2.19219594      5.49560105  -20.28582073  -13.93951929      0.00000000    0.00000000    0.00000000
    1   -7.99129564   -3.43621715   -1.27329394      3.72458092   -2.43628179  -18.43672154      0.00000000    0.00000000    0.00000000
    8    3.15687429    6.60324433    1.00438455     63.70526145   18.06813902  -12.91274777      0.00000000    0.00000000    0.00000000
    1    2.57525029    5.78988233    0.99331555     47.20695445   14.30439352    3.25070960      0.00000000    0.00000000    0.00000000
    1    4.14033029    6.78428833    1.00654055      8.93643682  -18.08596222   17.91991055      0.00000000    0.00000000    0.00000000
    8   -2.27219746   -1.81747956   -0.68775311    139.78298951  -22.71782631 -121.89118034      0.00000000    0.00000000    0.00000000