 BEGIN_INFO
   #
   # This is a XCRYSDEN-Structure-File
   # aimed for Visualization of Fermi Surface
   #
   # Case: Tight-binding calculation
   #
   # Launch as: xcrysden --xsf HICOLM.XSF
   #
 END_INFO
 # estrutura final
CRYSTAL
PRIMVEC
      19.00000000       0.00000000       0.00000000
       0.00000000      19.00000000       0.00000000
       0.00000000       0.00000000      19.00000000
PRIMCOORD
  300    1
    8   -4.17659289    2.72225471   -8.59293077      3.79192158   -0.10669734   -3.28192456      0.00000000    0.00000000    0.00000000
    1   -4.78386906    3.51253050   -8.66188265     -0.82666954   -2.91233429    2.97284600      0.00000000    0.00000000    0.00000000
    1   -4.22060470    1.95030850   -7.96028908     -2.96525204    3.01903163    0.30907856      0.00000000    0.00000000    0.00000000
    8   -3.97394618   -8.31258185    5.94493577     -4.98350305   -0.18613224    0.53941119      0.00000000    0.00000000    0.00000000
    1   -3.54032125   -9.16349572    5.65169584      2.47029872    3.38445810    0.66777213      0.00000000    0.00000000    0.00000000
    1   -3.55161914   -7.42970205    6.14552699      2.51320433   -3.19832587   -1.20718332      0.00000000    0.00000000    0.00000000
    8   -7.13776047   -8.36719904    1.88836225     -3.56714182    0.55108874    3.48317532      0.00000000    0.00000000    0.00000000
    1   -7.35424023   -7.99403123    0.98727596      3.76859909   -1.87205969    0.54388601      0.00000000    0.00000000    0.00000000
    1   -6.30859537   -8.83502104    2.19118595     -0.20145727    1.32097095   -4.02706132      0.00000000    0.00000000    0.00000000
    8    6.30731813   -5.39558294   -3.72173731      0.50656644    4.71680305    1.62979661      0.00000000    0.00000000    0.00000000
    1    7.06560831   -6.00943519   -3.50666763     -3.29747008   -1.56571223   -2.16286201      0.00000000    0.00000000    0.00000000
    1    5.46202450   -5.59187300   -4.21673398      2.79090364   -3.15109082    0.53306541      0.00000000    0.00000000    0.00000000
    8    6.99433653    1.45793470    5.52308533     -0.71342806   -4.59203829    1.88818048      0.00000000    0.00000000    0.00000000
    1    7.65571259    2.02621197    6.01064649     -1.92173731    1.63569011   -3.41088688      0.00000000    0.00000000    0.00000000
    1    6.45549588    1.67837071    4.71121576      2.63516536    2.95634818    1.52270641      0.00000000    0.00000000    0.00000000
    8   -9.14983712    5.87780374    2.46502571      2.43935658   -2.53632726    3.57456730      0.00000000    0.00000000    0.00000000
    1   -9.45658193    5.33478782    1.68456801     -0.85042297    4.15683806    0.01038678      0.00000000    0.00000000    0.00000000
    1   -9.26206891    6.85645313    2.63152695     -1.58893361   -1.62051080   -3.58495408      0.00000000    0.00000000    0.00000000
    8   -6.04470516    8.00667875   -2.19163043      4.88391385   -0.46498744   -1.04517756      0.00000000    0.00000000    0.00000000
    1   -6.55892583    7.15133038   -2.14657266     -2.08202059    3.63163186    0.69230116      0.00000000    0.00000000    0.00000000
    1   -6.36932556    8.94188772   -2.05717304     -2.80189326   -3.16664443    0.35287640      0.00000000    0.00000000    0.00000000
    8    3.08864488    9.46640622   -5.30329090      3.90239668   -0.07062627   -3.15082825      0.00000000    0.00000000    0.00000000
    1    2.53376920   -8.70306187   -5.32335069     -1.11687920   -3.09495380    2.67891149      0.00000000    0.00000000    0.00000000
    1    2.97326362    8.64800540   -4.74206033     -2.78551748    3.16558007    0.47191676      0.00000000    0.00000000    0.00000000
    8   -9.10762347   -4.19742614   -7.17522582      4.65565986    0.61612855    1.76248234      0.00000000    0.00000000    0.00000000
    1    9.23091277   -3.50238924   -6.89690405     -1.33443423   -3.14782358   -2.51262065      0.00000000    0.00000000    0.00000000
    1   -9.24579910   -4.99828522   -7.75626395     -3.32122564    2.53169503    0.75013831      0.00000000    0.00000000    0.00000000
    8    5.97131755   -3.87380276    4.29292183      0.21692172   -4.81823255    1.37786619      0.00000000    0.00000000    0.00000000
    1    5.05801121   -3.46899764    4.28405295      3.28840869    2.44320074   -1.10452625      0.00000000    0.00000000    0.00000000
    1    6.84736570   -3.45104285    4.06513264     -3.50533041    2.37503182   -0.27333994      0.00000000    0.00000000    0.00000000
    8    4.39235189   -8.60509210   -8.12108587      0.28010553    2.33419845   -4.43106508      0.00000000    0.00000000    0.00000000
    1    3.69044057   -9.31248430   -8.05044722      2.43359356    0.75760595    3.39211398      0.00000000    0.00000000    0.00000000
    1    5.04615555   -8.29861003   -7.43066335     -2.71369908   -3.09180440    1.03895109      0.00000000    0.00000000    0.00000000
    8   -9.10162444    2.24162923    2.13860370      5.01602968    0.00179747   -0.02335160      0.00000000    0.00000000    0.00000000
    1    9.46727963    3.14286755    2.13818828     -2.50675877   -3.42323962    0.02086692      0.00000000    0.00000000    0.00000000
    1    9.46793657    1.34008863    2.14302988     -2.50927091    3.42144215    0.00248468      0.00000000    0.00000000    0.00000000
    8    4.50439929   -7.79670256   -2.40578372     -1.13578334   -0.42653467    4.86713372      0.00000000    0.00000000    0.00000000
    1    5.43498261   -8.06057355   -2.65570461     -2.59496458    1.35419425   -3.07165525      0.00000000    0.00000000    0.00000000
    1    3.76889360   -7.45957080   -2.99182771      3.73074793   -0.92765958   -1.79547847      0.00000000    0.00000000    0.00000000
    8    0.95516037    5.30175993    6.70822188     -0.22578521    4.54817279   -2.10336617      0.00000000    0.00000000    0.00000000
    1    0.10756193    4.77348588    6.68420651      3.40462316   -1.75133673    1.82868338      0.00000000    0.00000000    0.00000000
    1    1.84154042    5.04885472    7.09350499     -3.17883795   -2.79683606    0.27468279      0.00000000    0.00000000    0.00000000
    8    5.68132766    9.46111538    3.52131567      1.61075747   -4.74711579    0.17696432      0.00000000    0.00000000    0.00000000
    1    4.71538840   -9.40340454    3.73737064      2.33684481    3.40701732   -0.96648905      0.00000000    0.00000000    0.00000000
    1    6.37061109   -8.85901369    3.27486503     -3.94760229    1.34009847    0.78952473      0.00000000    0.00000000    0.00000000
    8    1.11153953    9.45447264    0.97634304      4.38539753   -1.45066708    1.95569096      0.00000000    0.00000000    0.00000000
    1    0.96157532   -8.55848234    0.93991366     -3.05321881   -2.54921875   -1.47720187      0.00000000    0.00000000    0.00000000
    1    0.50828036    8.71659251    0.67686859     -1.33217872    3.99988583   -0.47848909      0.00000000    0.00000000    0.00000000
    8   -7.96945052    2.62650018   -3.65056273     -3.70022582   -3.13751775   -1.27489151      0.00000000    0.00000000    0.00000000
    1   -8.22959512    3.37456079   -3.04162582      4.04430796   -0.24842705   -1.25884731      0.00000000    0.00000000    0.00000000
    1   -7.07376765    2.41732860   -4.04052888     -0.34408214    3.38594480    2.53373882      0.00000000    0.00000000    0.00000000
    8   -1.48444811   -5.38177032   -6.33848999      0.24189733    2.04046235    4.57590809      0.00000000    0.00000000    0.00000000
    1   -0.96869597   -6.22866604   -6.46031653     -2.15799636    1.52990209   -3.31741805      0.00000000    0.00000000    0.00000000
    1   -2.04174560   -4.88534112   -7.00260669      1.91609903   -3.57036444   -1.25849004      0.00000000    0.00000000    0.00000000
    8    6.42766007   -4.54746763    7.90721771     -2.15658094    1.79495190   -4.15789714      0.00000000    0.00000000    0.00000000
    1    6.75820519   -3.85991772    8.55226737      0.52646921   -4.09319007    0.98558245      0.00000000    0.00000000    0.00000000
    1    6.46752412   -5.54331395    7.97631850      1.63011173    2.29823817    3.17231469      0.00000000    0.00000000    0.00000000
    8   -8.45423081   -9.30196864   -3.63336743      2.38363504    1.29385946    4.21959424      0.00000000    0.00000000    0.00000000
    1   -7.92851356   -9.19291480   -4.47586526     -3.96504309   -1.48285634   -0.28688847      0.00000000    0.00000000    0.00000000
    1   -9.38935630    9.36674699   -3.51561731      1.58140805    0.18899687   -3.93270577      0.00000000    0.00000000    0.00000000
    8   -6.12389976   -3.11206709   -7.91966408     -2.92805419    4.07246830    0.05220751      0.00000000    0.00000000    0.00000000
    1   -6.60095410   -3.98661152   -7.84439900      4.22998042   -0.04367170   -0.32888754      0.00000000    0.00000000    0.00000000
    1   -5.14393673   -2.93699408   -8.00389591     -1.30192623   -4.02879660    0.27668003      0.00000000    0.00000000    0.00000000
    8    1.99871538   -6.23561250   -9.42399857      4.79711111    1.46396780    0.07588457      0.00000000    0.00000000    0.00000000
    1    1.84878138   -7.22245971   -9.38246544     -3.39342645    2.53747804   -0.22037528      0.00000000    0.00000000    0.00000000
    1    1.32471649   -5.50020685   -9.47856550     -1.40368465   -4.00144584    0.14449071      0.00000000    0.00000000    0.00000000
    8   -7.71367819    7.53309102    2.89762844      4.69126015   -0.93255985    1.51116496      0.00000000    0.00000000    0.00000000
    1   -7.79932312    7.97038600    2.00347453     -3.55007506   -0.88994769    2.14656126      0.00000000    0.00000000    0.00000000
    1   -8.43378545    7.25596806    3.53223222     -1.14118508    1.82250754   -3.65772622      0.00000000    0.00000000    0.00000000
    8   -9.10514978    1.83391676   -7.21175408      4.95370113   -0.29564100   -0.73092291      0.00000000    0.00000000    0.00000000
    1    9.43310270    0.96602478   -7.03391469     -2.33891152    3.53936629   -0.07142357      0.00000000    0.00000000    0.00000000
    1   -9.49423838    2.75258325   -7.26405136     -2.61478960   -3.24372529    0.80234648      0.00000000    0.00000000    0.00000000
    8    7.23778580    0.61921093    0.08148572      1.62317614   -4.71401401   -0.55188197      0.00000000    0.00000000    0.00000000
    1    6.33391008    0.81084094   -0.29846159      2.09095570    3.16647940    1.89845344      0.00000000    0.00000000    0.00000000
    1    7.86287483    1.23724144    0.55622385     -3.71413184    1.54753461   -1.34657147      0.00000000    0.00000000    0.00000000
    8    1.70656131   -1.50239336   -7.51049486     -1.75753291    4.66642391    0.54448072      0.00000000    0.00000000    0.00000000
    1    1.04218520   -2.17896728   -7.82502055      3.97428905   -1.28596109    0.74440011      0.00000000    0.00000000    0.00000000
    1    2.67280410   -1.62731207   -7.28948838     -2.21675613   -3.38046282   -1.28888083      0.00000000    0.00000000    0.00000000
    8    2.65334226   -6.72182092   -8.82427150     -2.12041816   -4.49683523   -0.66578563      0.00000000    0.00000000    0.00000000
    1    3.28920351   -6.65479118   -8.05663800     -0.66261475    3.46015798   -2.36453397      0.00000000    0.00000000    0.00000000
    1    2.38167650   -6.01648771    9.52244685      2.78303291    1.03667725    3.03031960      0.00000000    0.00000000    0.00000000
    8    2.64491746   -5.14369264   -4.37054161     -2.22762868    4.48243133   -0.32608643      0.00000000    0.00000000    0.00000000
    1    2.03273360   -5.93245862   -4.40448874      4.16446849   -0.70801431    0.39825625      0.00000000    0.00000000    0.00000000
    1    3.63971698   -5.12481538   -4.28058641     -1.93683981   -3.77441702   -0.07216982      0.00000000    0.00000000    0.00000000
    8   -6.19737395    2.61510461    3.40864898      1.90747493   -2.13158444   -4.12056989      0.00000000    0.00000000    0.00000000
    1   -5.70434536    3.41528040    3.74734389     -3.44759153   -1.27725270    2.11789260      0.00000000    0.00000000    0.00000000
    1   -7.01802672    2.18103717    3.77768637      1.54011660    3.40883714    2.00267729      0.00000000    0.00000000    0.00000000
    8   -4.54932771   -6.48628233   -5.88006728      0.52474142   -4.98853764    0.00526889      0.00000000    0.00000000    0.00000000
    1   -5.49083712   -6.15217211   -5.87782722      3.14119673    2.85228794   -0.01285731      0.00000000    0.00000000    0.00000000
    1   -3.69795157   -5.96357578   -5.88321229     -3.66593815    2.13624970    0.00758843      0.00000000    0.00000000    0.00000000
    8   -6.62279989    6.22917893   -6.62689062      0.47352827    4.94438939   -0.69987942      0.00000000    0.00000000    0.00000000
    1   -5.79114011    5.75229336   -6.34582946     -3.54876400   -2.27374371   -0.48897637      0.00000000    0.00000000    0.00000000
    1   -7.53579444    5.85683330   -6.78774369      3.07523573   -2.67064569    1.18885578      0.00000000    0.00000000    0.00000000
    8   -2.07432858   -1.58835403   -3.58670769     -4.27951918   -2.54575024   -0.60504326      0.00000000    0.00000000    0.00000000
    1   -2.17185642   -0.59893892   -3.48862655      3.90540060   -1.65361150    0.12741115      0.00000000    0.00000000    0.00000000
    1   -1.24177005   -2.14051801   -3.58086885      0.37411857    4.19936174    0.47763211      0.00000000    0.00000000    0.00000000
    8   -4.13775143   -6.64039823   -8.36433051      4.05854312   -1.84347463   -2.30020833      0.00000000    0.00000000    0.00000000
    1   -5.00809108   -7.05251708   -8.63030132     -0.04813406    3.08752364    2.90992549      0.00000000    0.00000000    0.00000000
    1   -3.96449157   -5.91165089   -7.70328440     -4.01040906   -1.24404901   -0.60971716      0.00000000    0.00000000    0.00000000
    8    4.78202879   -9.25651823   -2.95009545      0.82278274    4.13144552   -2.72311285      0.00000000    0.00000000    0.00000000
    1    5.19031966    8.90423531   -3.30651793     -2.22983083   -0.22641555    3.60267814      0.00000000    0.00000000    0.00000000
    1    4.23242042   -9.12687369   -2.12596213      1.40704809   -3.90502997   -0.87956529      0.00000000    0.00000000    0.00000000
    8   -5.26902245   -5.68270103   -3.79622113     -1.85678751    3.28844748   -3.30145450      0.00000000    0.00000000    0.00000000
    1   -4.30680881   -5.55766137   -3.55834783     -2.11944688   -3.19117324    1.82404008      0.00000000    0.00000000    0.00000000
    1   -5.91231657   -6.37254959   -3.46704937      3.97623439   -0.09727424    1.47741442      0.00000000    0.00000000    0.00000000
    8   -6.97953794   -3.62514769    2.98981247      4.67077138    1.77857684   -0.42608845      0.00000000    0.00000000    0.00000000
    1   -7.27050352   -3.85360769    3.91783108     -2.75360680   -0.60180466   -3.17146764      0.00000000    0.00000000    0.00000000
    1   -7.49080925   -3.70217042    2.13497763     -1.91716458   -1.17677218    3.59755609      0.00000000    0.00000000    0.00000000
    8    7.42263553   -3.43405738   -1.26609666     -0.79869280    4.94626016   -0.24009659      0.00000000    0.00000000    0.00000000
    1    6.60263345   -3.99962257   -1.18989690      3.77311635   -1.93859194   -0.09097789      0.00000000    0.00000000    0.00000000
    1    8.37982078   -3.71804419   -1.30105843     -2.97442355   -3.00766822    0.33107449      0.00000000    0.00000000    0.00000000
    8   -2.34661368   -8.22922538   -4.04033422     -2.93259686    3.39738698    2.24020250      0.00000000    0.00000000    0.00000000
    1   -1.89790896   -7.92466230   -4.87936968      0.71887637   -3.96279058    1.33507050      0.00000000    0.00000000    0.00000000
    1   -2.29162278   -9.11731131   -3.58607284      2.21372049    0.56540361   -3.57527301      0.00000000    0.00000000    0.00000000
    8   -3.59601813   -8.44454228   -1.31332283     -2.10131077    0.58248032   -4.51734608      0.00000000    0.00000000    0.00000000
    1   -3.40470855   -7.60001229   -0.81508318      1.00944921   -3.68761750    1.83989832      0.00000000    0.00000000    0.00000000
    1   -3.42641511   -9.38911813   -1.03568161      1.09186156    3.10513718    2.67744776      0.00000000    0.00000000    0.00000000
    8   -8.63577182    8.27021481   -2.69166807      1.73827840    4.70391023   -0.11153063      0.00000000    0.00000000    0.00000000
    1   -8.15038272    7.64596649   -2.08110634     -3.27881003   -1.51559739   -2.22600817      0.00000000    0.00000000    0.00000000
    1   -9.41972062    8.08653012   -3.28307100      1.54053163   -3.18831284    2.33753880      0.00000000    0.00000000    0.00000000
    8   -0.01579668    2.57581630    2.88363895     -1.64544196   -0.45030413    4.71708964      0.00000000    0.00000000    0.00000000
    1    0.95546091    2.38642859    2.74628765     -2.32837820    1.09102915   -3.37508374      0.00000000    0.00000000    0.00000000
    1   -0.70443418    2.84254488    2.21080380      3.97382016   -0.64072503   -1.34200590      0.00000000    0.00000000    0.00000000
    8    1.05315170    1.14175373   -2.16206210     -4.05952044    1.65163069    2.43994830      0.00000000    0.00000000    0.00000000
    1    1.32843311    0.20400875   -1.95486946      2.30822841    2.19603957   -2.80220000      0.00000000    0.00000000    0.00000000
    1    1.47512116    1.79581891   -2.78833249      1.75129203   -3.84767027    0.36225170      0.00000000    0.00000000    0.00000000
    8    4.83011582    3.69157162   -3.67856031      4.68758144    1.16852309    1.34997588      0.00000000    0.00000000    0.00000000
    1    4.66330425    2.72385197   -3.86231449     -3.23886677    2.70891643   -0.41748905      0.00000000    0.00000000    0.00000000
    1    4.19180869    4.45859381   -3.72667170     -1.44871467   -3.87743952   -0.93248682      0.00000000    0.00000000    0.00000000
    8   -7.21361810   -6.75252913   -4.03061601     -0.34460233   -4.12898806   -2.82733623      0.00000000    0.00000000    0.00000000
    1   -8.05701502   -6.47053358   -3.57538738      3.48682074    2.34011908    0.60715832      0.00000000    0.00000000    0.00000000
    1   -6.31103065   -6.32534480   -4.00023259     -3.14221841    1.78886898    2.22017791      0.00000000    0.00000000    0.00000000
    8   -7.03762816   -9.15280862   -9.15176240      3.23665481   -3.80512911   -0.45409655      0.00000000    0.00000000    0.00000000
    1   -6.73577479   -8.28213998    9.46236991     -3.81971372   -0.16244458    1.84014471      0.00000000    0.00000000    0.00000000
    1   -7.89539691   -9.36992256   -8.68790093      0.58305891    3.96757370   -1.38604816      0.00000000    0.00000000    0.00000000
    8   -7.83369915    2.70086614    9.15167213      1.59987449    1.91883756    4.34965188      0.00000000    0.00000000    0.00000000
    1   -8.18424735    1.76640442    9.19607708      0.00935360    1.96284033   -3.76165311      0.00000000    0.00000000    0.00000000
    1   -7.75794107    3.30575120    8.36018726     -1.60922809   -3.88167789   -0.58799876      0.00000000    0.00000000    0.00000000
    8   -7.49792942   -6.52408762    3.85513271      4.15428474   -0.73322116   -2.71394492      0.00000000    0.00000000    0.00000000
    1   -7.51624716   -6.97671353    4.74556375     -3.36212953    2.32418713   -1.13886416      0.00000000    0.00000000    0.00000000
    1   -8.19313574   -5.94552526    3.43083616     -0.79215521   -1.59096597    3.85280908      0.00000000    0.00000000    0.00000000
    8   -3.55637123   -4.22878715   -4.70569483     -0.69775666   -2.45886514    4.31602287      0.00000000    0.00000000    0.00000000
    1   -3.49704102   -3.23437371   -4.63022411      0.35112671   -1.74437695   -3.85184041      0.00000000    0.00000000    0.00000000
    1   -3.49585688   -4.80087535   -5.52247366      0.34662995    4.20324209   -0.46418247      0.00000000    0.00000000    0.00000000
    8   -3.47425553   -6.58844056    8.78183764      1.68154797    3.66969612    2.97775097      0.00000000    0.00000000    0.00000000
    1   -4.46789511   -6.67051303    8.71844886      2.38353676   -2.71976360   -2.21911585      0.00000000    0.00000000    0.00000000
    1   -2.76943234   -7.13665867    8.33378124     -4.06508473   -0.94993251   -0.75863512      0.00000000    0.00000000    0.00000000
    8    5.65117493    6.16447533    4.02773703      2.85135068   -3.25475007   -2.53716659      0.00000000    0.00000000    0.00000000
    1    5.19556334    6.86048305    3.47450572     -0.62554576    0.04605277    4.19634274      0.00000000    0.00000000    0.00000000
    1    5.61704662    6.02749339    5.01674959     -2.22580492    3.20869730   -1.65917616      0.00000000    0.00000000    0.00000000
    8   -5.79603513    1.00589588   -8.68431204      4.56805839   -2.06898310    0.11372363      0.00000000    0.00000000    0.00000000
    1   -5.82303835    1.97809810   -8.91271345     -3.67097522   -1.98210591    0.77324161      0.00000000    0.00000000    0.00000000
    1   -6.55363263    0.38905383   -8.47544255     -0.89708317    4.05108901   -0.88696524      0.00000000    0.00000000    0.00000000
    8   -5.46646183    9.42266645    9.38704840      1.00797140   -4.89996757    0.36839631      0.00000000    0.00000000    0.00000000
    1   -5.01949976   -8.99355217   -8.93656641     -2.52963351    1.83117916   -2.87236740      0.00000000    0.00000000    0.00000000
    1   -6.08654907   -9.31952070    8.64738803      1.52166210    3.06878841    2.50397109      0.00000000    0.00000000    0.00000000
    8   -6.20334706   -2.18447134    4.52538809     -4.22765746   -2.69859874    0.07420980      0.00000000    0.00000000    0.00000000
    1   -6.32199075   -1.20156599    4.39161993      3.94276048   -1.50264482    0.44658302      0.00000000    0.00000000    0.00000000
    1   -5.35857255   -2.70387858    4.64641092      0.28489697    4.20124356   -0.52079283      0.00000000    0.00000000    0.00000000
    8   -2.09780767   -1.53446680    7.72359823     -4.82649101   -1.30233831   -0.41225648      0.00000000    0.00000000    0.00000000
    1   -1.91878503   -0.70633088    8.25295162      3.30725746   -2.06840717   -1.66926754      0.00000000    0.00000000    0.00000000
    1   -1.44784844   -2.13891847    7.26505197      1.51923355    3.37074549    2.08152402      0.00000000    0.00000000    0.00000000
    8    6.41370999    6.89597381   -8.88545955      0.75259374    3.07732853   -3.88903828      0.00000000    0.00000000    0.00000000
    1    7.23340701    6.46087966   -8.51550894     -3.73385663   -0.89011347    1.80796497      0.00000000    0.00000000    0.00000000
    1    5.46475075    6.80251523   -8.58744079      2.98126288   -2.18721506    2.08107331      0.00000000    0.00000000    0.00000000
    8    8.31850798   -8.63479299   -4.23891025     -0.92120958   -4.88424253   -0.67593177      0.00000000    0.00000000    0.00000000
    1    8.95412128   -8.41448751   -3.50030740     -1.65228427    3.19821217   -2.24592109      0.00000000    0.00000000    0.00000000
    1    7.84111657   -8.01620319   -4.86141917      2.57349385    1.68603036    2.92185286      0.00000000    0.00000000    0.00000000
    8    8.58871211   -4.43647083   -7.77468213      0.13351347    4.02231705    2.99398532      0.00000000    0.00000000    0.00000000
    1    8.14487954   -4.30045816   -8.65932190      1.57482841   -3.83907687    0.88554145      0.00000000    0.00000000    0.00000000
    1    9.00961173   -5.26334572   -7.40428341     -1.70834188   -0.18324018   -3.87952677      0.00000000    0.00000000    0.00000000
    8   -3.43320366   -6.90910917    5.22323140      5.00627798    0.29956890    0.09328588      0.00000000    0.00000000    0.00000000
    1   -3.80903801   -7.83449623    5.20129331     -2.70851989    3.26600343    0.00623406      0.00000000    0.00000000    0.00000000
    1   -3.91722554   -6.03517449    5.22914713     -2.29775810   -3.56557233   -0.09951993      0.00000000    0.00000000    0.00000000
    8   -5.31029624    8.55293762   -8.47162218      3.19091214   -1.60363618   -3.52242762      0.00000000    0.00000000    0.00000000
    1   -5.96090804    7.87229490   -8.13769950     -0.16567008    3.90890964    1.64190384      0.00000000    0.00000000    0.00000000
    1   -5.20774678   -9.49099032   -8.20054492     -3.02524206   -2.30527346    1.88052379      0.00000000    0.00000000    0.00000000
    8   -3.31915589   -6.22165452    0.81335887      4.18930687   -2.62340541   -0.85351501      0.00000000    0.00000000    0.00000000
    1   -4.16946980   -6.74504302    0.78013841     -0.23218986    4.15426479    0.83118427      0.00000000    0.00000000    0.00000000
    1   -3.18838033   -5.24767431    0.99317682     -3.95711701   -1.53085938    0.02233074      0.00000000    0.00000000    0.00000000
    8   -8.28773329   -2.90985175    3.14764069      0.49633068   -4.69419613   -1.69686105      0.00000000    0.00000000    0.00000000
    1   -7.43400056   -2.41157644    3.29233183     -3.65139166    1.98585028    0.85234850      0.00000000    0.00000000    0.00000000
    1   -9.22671327   -2.60187003    3.29439584      3.15506098    2.70834585    0.84451255      0.00000000    0.00000000    0.00000000
    8   -0.21388045   -6.21362127    6.49493604     -0.35778046   -0.12365204   -5.00179308      0.00000000    0.00000000    0.00000000
    1   -0.34056329   -7.08992520    6.95766345      0.77652779    3.42923858    2.37490330      0.00000000    0.00000000    0.00000000
    1   -0.02574706   -5.31608115    6.89129560     -0.41874733   -3.30558654    2.62688978      0.00000000    0.00000000    0.00000000
    8   -8.51469195   -9.10164693   -7.05282802      0.02891985    4.96812549   -0.69108456      0.00000000    0.00000000    0.00000000
    1   -9.41762778    9.47121042   -7.03464857      3.40433684   -2.48222054    0.50185534      0.00000000    0.00000000    0.00000000
    1   -7.61672354    9.47218067   -6.95230822     -3.43325669   -2.48590495    0.18922922      0.00000000    0.00000000    0.00000000
    8   -1.22331447    4.92579327   -5.81220187      2.80854096    1.83109219    3.73101390      0.00000000    0.00000000    0.00000000
    1   -0.81228674    4.18012074   -6.33479339     -3.88057951    1.31854054   -1.09788301      0.00000000    0.00000000    0.00000000
    1   -2.11672632    5.35696657   -5.93043266      1.07203855   -3.14963272   -2.63313089      0.00000000    0.00000000    0.00000000
    8    0.01689376   -2.55082265    2.93751994     -4.05894737    1.30124513    2.64442425      0.00000000    0.00000000    0.00000000
    1   -0.08013285   -2.49638621    1.94469755      3.72129499   -1.28157973    1.58504286      0.00000000    0.00000000    0.00000000
    1    0.81106603   -2.82875475    3.47614528      0.33765238   -0.01966540   -4.22946711      0.00000000    0.00000000    0.00000000
    8   -6.87014502   -3.93129926    4.92556988      0.16683577   -4.87171625   -1.18304963      0.00000000    0.00000000    0.00000000
    1   -6.00276642   -3.52807301    5.21390260     -3.43102728    2.49337778   -0.11745611      0.00000000    0.00000000    0.00000000
    1   -7.76618251   -3.49777618    4.84043291      3.26419152    2.37833847    1.30050574      0.00000000    0.00000000    0.00000000
    8   -3.44598718    1.53761514    8.48682493      3.00459476   -0.55313468   -3.97834112      0.00000000    0.00000000    0.00000000
    1   -3.47768952    2.45620802    8.87830419     -2.36161886   -3.03075780    1.80000614      0.00000000    0.00000000    0.00000000
    1   -3.93034843    0.71402328    8.77865642     -0.64297590    3.58389248    2.17833498      0.00000000    0.00000000    0.00000000
    8    6.70914852   -4.84384486   -5.79878656     -0.61784792    1.70716562    4.67601846      0.00000000    0.00000000    0.00000000
    1    7.63837868   -4.78249314   -6.16050593     -3.01766750   -1.64314933   -2.48929508      0.00000000    0.00000000    0.00000000
    1    5.88603795   -5.19841146   -6.24019901      3.63551543   -0.06401629   -2.18672338      0.00000000    0.00000000    0.00000000
    8   -9.03614593    2.84841545   -3.49150909     -1.64089216   -4.30265719    1.98886625      0.00000000    0.00000000    0.00000000
    1    9.25342734    3.47308134   -3.81269467      4.05278031    1.18254991   -0.42346041      0.00000000    0.00000000    0.00000000
    1   -8.04388479    2.96276050   -3.51192496     -2.41188815    3.12010728   -1.56540585      0.00000000    0.00000000    0.00000000
    8   -5.09679828    2.84909923    5.48984033      0.63911783   -4.81279378    1.26082485      0.00000000    0.00000000    0.00000000
    1   -4.48090873    3.19473911    4.78323803     -2.86630406    2.66332895    1.64126013      0.00000000    0.00000000    0.00000000
    1   -5.82245668    3.33008651    5.97988479      2.22718623    2.14946483   -2.90208497      0.00000000    0.00000000    0.00000000
    8   -3.74807877    9.05684519   -8.40279963     -2.96521692   -1.83573357    3.60535305      0.00000000    0.00000000    0.00000000
    1   -3.46184663   -8.99350350   -8.28318729      1.36269413   -2.08916875   -3.43237816      0.00000000    0.00000000    0.00000000
    1   -3.52501510    8.42249016   -9.14165740      1.60252279    3.92490232   -0.17297489      0.00000000    0.00000000    0.00000000
    8   -8.61332086    9.44234833    7.30913032      3.02473332   -3.99897594   -0.14303857      0.00000000    0.00000000    0.00000000
    1   -8.21273714   -8.72815565    7.69583781     -4.01950717    0.15399614   -1.35006882      0.00000000    0.00000000    0.00000000
    1    9.46658146    9.29969938    6.94699100      0.99477385    3.84497980    1.49310739      0.00000000    0.00000000    0.00000000
    8    8.04980304   -1.69358940   -6.63372325      2.94710242   -3.95184288    0.92647118      0.00000000    0.00000000    0.00000000