 BEGIN_INFO
   #
   # This is a XCRYSDEN-Structure-File
   # aimed for Visualization of Fermi Surface
   #
   # Case: Tight-binding calculation
   #
   # Launch as: xcrysden --xsf HICOLM.XSF
   #
 END_INFO
 # estrutura final
CRYSTAL
PRIMVEC
      19.00000000       0.00000000       0.00000000
       0.00000000      19.00000000       0.00000000
       0.00000000       0.00000000      19.00000000
PRIMCOORD
  300    1
    8   -4.18936711    2.74354211   -8.52675643   1227.90849185 1839.49289415 3888.26816100      0.00000000    0.00000000    0.00000000
    1   -4.76224911    3.55495111   -8.64247143      3.70462006   15.33167159    5.99399231      0.00000000    0.00000000    0.00000000
    1   -4.18288411    1.94807411   -7.92082343    519.46923756  282.82124422  262.03834853      0.00000000    0.00000000    0.00000000
    8   -4.07866379   -8.71626014    6.60321881   -825.39691267-2463.28278493 3962.94096914      0.00000000    0.00000000    0.00000000
    1   -3.70065979   -9.59403714    6.30895881      1.99129928   -5.38843746    5.51924736      0.00000000    0.00000000    0.00000000
    1   -3.71228079   -7.81068414    6.81690581   -186.29727567 -704.16898451 1024.63708604      0.00000000    0.00000000    0.00000000
    8   -7.11355803   -8.37098910    1.86456153      2.37676591   -4.18591834  -19.05849346      0.00000000    0.00000000    0.00000000
    1   -7.38491103   -7.97963310    0.98525753      1.56548813    2.54547118    1.18005359      0.00000000    0.00000000    0.00000000
    1   -6.30937703   -8.84466210    2.22358053      1.99083931    4.05798637    2.48126052      0.00000000    0.00000000    0.00000000
    8    6.30356655   -5.42820495   -3.73036848    -29.92383429  -61.33335719  235.49821462      0.00000000    0.00000000    0.00000000
    1    7.09044555   -5.99522795   -3.48690748    -13.47642210   -4.83716718   17.39195068      0.00000000    0.00000000    0.00000000
    1    5.44102455   -5.56572995   -4.21727048   -131.37918069  -79.96894477  194.54048085      0.00000000    0.00000000    0.00000000
    8    6.99918649    1.48903927    5.51028614      1.37617353   -2.42366271    0.04865556      0.00000000    0.00000000    0.00000000
    1    7.66973049    2.01088727    6.03755414     -0.68820545    1.12763672   -0.58945422      0.00000000    0.00000000    0.00000000
    1    6.43520649    1.65310327    4.70098014     -0.49327370    1.46058114   -0.15427544      0.00000000    0.00000000    0.00000000
    8   -9.17266323    5.88478767    2.43325517   -522.64926028 -825.70727103 -606.20949402      0.00000000    0.00000000    0.00000000
    1   -9.45488323    5.29163367    1.67927517     -0.42460009    4.77988202   -1.77819511      0.00000000    0.00000000    0.00000000
    1   -9.25481023    6.85679467    2.65330217  -4564.37916695-2066.56667384 -719.84579758      0.00000000    0.00000000    0.00000000
    8   -6.07242008    8.01071019   -2.18482589    555.09039908  101.96524338  -36.12017158      0.00000000    0.00000000    0.00000000
    1   -6.53468308    7.12456619   -2.15274489     91.67065847  -37.35272168   13.56083220      0.00000000    0.00000000    0.00000000
    1   -6.33966308    8.96630519   -2.06078989     45.43157191   19.33608461   10.54262178      0.00000000    0.00000000    0.00000000
    8    3.06210564    9.46688719   -5.28201198     -8.89550196    0.46527689   -8.64040795      0.00000000    0.00000000    0.00000000
    1    2.54462964   -8.67980481   -5.34564798     -0.25922117   -2.65042411    0.99238983      0.00000000    0.00000000    0.00000000
    1    2.99668664    8.62412919   -4.74774198    -11.09938420   -3.67054565   -8.71314806      0.00000000    0.00000000    0.00000000
    8   -1.79895232  -16.34166931   -0.01695239     -3.65391550    3.00530628  -14.48929509      0.00000000    0.00000000    0.00000000
    1   16.58421768  -15.61835631    0.29337961     -1.57327339    0.58959210   -2.31379978      0.00000000    0.00000000    0.00000000
    1   -1.87753632  -17.15701131   -0.59054439      2.02720894   -0.73607310   -0.50924600      0.00000000    0.00000000    0.00000000
    8    5.96987114   -3.84113302    4.28354623      2.35184362    0.75746160   -3.50259733      0.00000000    0.00000000    0.00000000
    1    5.03341914   -3.49051702    4.29322923      0.05480644   -1.23436360    1.06934677      0.00000000    0.00000000    0.00000000
    1    6.87392114   -3.47204902    4.06805123     -1.64334116   -0.69152001    1.67001468      0.00000000    0.00000000    0.00000000
    8    4.39199519   -8.62352844   -8.09113052    152.77675960 -258.63540490   -8.14283626      0.00000000    0.00000000    0.00000000
    1    3.67384319   -9.31928344   -8.07894852      1.44598636   -5.96398731   -3.04709065      0.00000000    0.00000000    0.00000000
    1    5.06831019   -8.27642844   -7.44144852      1.60963056   -7.29004763    0.20079015      0.00000000    0.00000000    0.00000000
    8   -9.13574100    2.24162691    2.13872967    -11.42578408    0.95779228   -3.26898727      0.00000000    0.00000000    0.00000000
    1    9.48930000    3.16865091    2.13798367     -0.16840950   -9.20956441    2.04703186      0.00000000    0.00000000    0.00000000
    1    9.48997600    1.31434091    2.14296367      2.83351446   -0.82104388    2.02535661      0.00000000    0.00000000    0.00000000
    8    4.54691183   -7.58506651   -2.46630297   1130.57419681 7064.02166016 -669.99429270      0.00000000    0.00000000    0.00000000
    1    5.48859383   -7.86230151   -2.65693997   1808.28192314 3703.97689863  732.14202642      0.00000000    0.00000000    0.00000000
    1    3.77488083   -7.24411951   -3.00267097    -23.37108211   59.56651393    6.89466789      0.00000000    0.00000000    0.00000000
    8    0.95669281    5.27094744    6.72248868      0.15659422    1.91731345    0.87065732      0.00000000    0.00000000    0.00000000
    1    0.08178481    4.78964744    6.66907968     -0.09773127   -1.43224105   -0.64838295      0.00000000    0.00000000    0.00000000
    1    1.86532781    5.07288744    7.09007768     -0.23292631   -0.53327727   -0.32269734      0.00000000    0.00000000    0.00000000
    8    5.67045978    9.49339531    3.52012867      5.09237647    9.98693497    1.26102360      0.00000000    0.00000000    0.00000000
    1    4.69889378   -9.43204169    3.74477467     -0.67234475    2.98200495   -0.23792406      0.00000000    0.00000000    0.00000000
    1    6.40142978   -8.87208969    3.26904867     -0.75707472    1.58167405   -0.50908443      0.00000000    0.00000000    0.00000000
    8    1.08182847    9.46428780    0.96306385      1.73450238   -1.90578426   -2.20145031      0.00000000    0.00000000    0.00000000
    1    0.98743047   -8.54025220    0.95228485      1.50724854   -0.13304138   -1.01206831      0.00000000    0.00000000    0.00000000
    1    0.52117847    8.68551680    0.68172085     -0.24284649    0.71990545    0.65703141      0.00000000    0.00000000    0.00000000
    856809.60485371****************************      0.00000000    0.00000000    0.00000000      0.00000000    0.00000000    0.00000000
    156809.28677171****************************      0.00000000    0.00000000    0.00000000      0.00000000    0.00000000    0.00000000
    156810.47563771****************************      0.00000000    0.00000000    0.00000000      0.00000000    0.00000000    0.00000000
    8   -1.48359104   -5.39570065   -6.37036977    243.79420248  -10.44508667  -84.44933466      0.00000000    0.00000000    0.00000000
    1   -0.94979504   -6.23895565   -6.43322577      2.49090239    0.22457108   -2.75175422      0.00000000    0.00000000    0.00000000
    1   -2.05351704   -4.85723265   -6.99101677     18.60602478    1.68669047  -11.76292283      0.00000000    0.00000000    0.00000000
    8    6.44229776   -4.55963495    7.93544752      1.76892730   -0.02991429    4.24282447      0.00000000    0.00000000    0.00000000
    1    6.75285776   -3.82793395    8.54218752     -3.45997548    1.56915422   -4.36977486      0.00000000    0.00000000    0.00000000
    1    6.45386776   -5.55944895    7.94977552      0.76618330    0.16294355   -1.92799251      0.00000000    0.00000000    0.00000000
    8   -8.43697814   -9.29238890   -3.68182155   2672.88575078  956.27764949-1343.92867245      0.00000000    0.00000000    0.00000000
    1   -7.86370114   -9.16255890   -4.49081155     21.29844084  -11.70610224  108.97041455      0.00000000    0.00000000    0.00000000
    1   -9.36630114    9.38451610   -3.50311555  -1156.26345167 3437.00632540-2415.62396242      0.00000000    0.00000000    0.00000000
    8   -7.10385440   -0.91265753   -7.59027488  -8916.44476060-2306.0103971410675.76105632      0.00000000    0.00000000    0.00000000
    1   -7.63450740   -1.75661853   -7.51214588   2860.0283529012504.32440485 -488.17925232      0.00000000    0.00000000    0.00000000
    1   -6.13584240   -0.67699853   -7.67620188   -989.71412743  423.29617641 2360.77088305      0.00000000    0.00000000    0.00000000
    8-3252.28149918-1813.29340969  621.95918449      0.00000000    0.00000000    0.00000000      0.00000000    0.00000000    0.00000000
    1-3252.37024718-1814.28848469  622.00294049      0.00000000    0.00000000    0.00000000      0.00000000    0.00000000    0.00000000
    1-3252.90929218-1812.51700269  621.90409349      0.00000000    0.00000000    0.00000000      0.00000000    0.00000000    0.00000000
    8   -7.68341143    7.56813741    2.89706469   4641.28417635 2164.41894097  735.68724284      0.00000000    0.00000000    0.00000000
    1   -7.70747743    8.00520441    1.99797669     11.33732673    7.03330288   -3.80088921      0.00000000    0.00000000    0.00000000
    1   -8.36007543    7.27036541    3.57043269    431.37519407  713.74069687  597.87807944      0.00000000    0.00000000    0.00000000
    8   -9.13882223    1.83592919   -7.20671339     -9.20333686    1.21759857    8.51985490      0.00000000    0.00000000    0.00000000
    1    9.45384077    0.93919419   -7.03376639      4.60157718    4.20223639    3.43109641      0.00000000    0.00000000    0.00000000
    1   -9.47142323    2.77682019   -7.27048139     -0.08625253   -1.63579233    1.21312444      0.00000000    0.00000000    0.00000000
    8    7.22676961    0.65118228    0.08526988     -1.30669389    1.58943045    4.30304352      0.00000000    0.00000000    0.00000000
    1    6.31921061    0.78395228   -0.31307012      1.33633996   -1.02148451   -1.44578760      0.00000000    0.00000000    0.00000000
    1    7.89187961    1.22254128    0.56604588     -9.13803146   -3.91500147  -10.93430290      0.00000000    0.00000000    0.00000000
    8    1.71847864   -1.53401917   -7.51418781      0.33848220    0.68901539   -0.21699894      0.00000000    0.00000000    0.00000000
    1    1.01112464   -2.16624417   -7.83027281     -0.31847713   -0.26573426    0.70940138      0.00000000    0.00000000    0.00000000
    1    2.68835364   -1.59882017   -7.27943281     -0.15781783   -0.92899084    0.21589593      0.00000000    0.00000000    0.00000000
    8    2.75840791   -6.71644459   -8.74512955    -26.07436918   32.45967032   -6.97591538      0.00000000    0.00000000    0.00000000
    1    3.38350491   -6.70887259   -7.96464055   -129.07237600  242.57475695   12.51706378      0.00000000    0.00000000    0.00000000
    1    2.45003691   -6.05232359    9.57382845      0.76219589   -1.84797476   -0.55008039      0.00000000    0.00000000    0.00000000
    8    2.65994332   -5.17405064   -4.36842285     -8.41991096    4.47121563  -10.36548835      0.00000000    0.00000000    0.00000000
    1    1.99985732   -5.92418564   -4.40779085     -3.09653821    2.62347793    1.19015320      0.00000000    0.00000000    0.00000000
    1    3.65277532   -5.09345664   -4.28034685    -14.78393167    7.54443265    1.16456929      0.00000000    0.00000000    0.00000000
    8   -6.21192628    2.62908270    3.43469459   -155.79183191  -45.07854497 -181.46820932      0.00000000    0.00000000    0.00000000
    1   -5.67877128    3.42303870    3.72683259   -380.36592054  345.41974240-1129.49208051      0.00000000    0.00000000    0.00000000
    1   -7.03000328    2.15351570    3.75804259      4.00347592   -2.54072163   -1.48154285      0.00000000    0.00000000    0.00000000
    8   -4.56066028   -6.46322171   -5.87394400   -757.42845360-1039.48425543  637.03395131      0.00000000    0.00000000    0.00000000
    1   -5.52192028   -6.18764571   -5.87156800      6.26832278  -17.95000957    6.60613063      0.00000000    0.00000000    0.00000000
    1   -3.67778628   -5.99365871   -5.87710700   -116.84185555 -360.75343974 -138.36032616      0.00000000    0.00000000    0.00000000
    8   -6.71956202    6.00297465   -6.58884273  -4263.55803542-7814.86934725 1052.03458645      0.00000000    0.00000000    0.00000000
    1   -5.85766702    5.57993965   -6.30929973     68.22517020 -719.61642400   69.48879818      0.00000000    0.00000000    0.00000000
    1   -7.65219102    5.68746765   -6.76384573    -22.99586899  -28.47515713   -3.41509411      0.00000000    0.00000000    0.00000000
    8   -2.03218141   -1.58771082   -3.56178071   1181.45568127-1482.64759470 1868.04052635      0.00000000    0.00000000    0.00000000
    1   -2.19090441   -0.60475882   -3.46915371     59.91864609    7.77971513   85.26306269      0.00000000    0.00000000    0.00000000
    1   -1.23423241   -2.19040282   -3.56403271      2.43986886   -3.32259454    1.22832884      0.00000000    0.00000000    0.00000000
    8   -4.16267548   -6.63269483   -8.33103550     96.12755010 -482.97779108 1507.83043028      0.00000000    0.00000000    0.00000000
    1   -5.00250148   -7.08175383   -8.63600250   3608.58941509 -138.22883312 5439.84871730      0.00000000    0.00000000    0.00000000
    1   -3.92907148   -5.90827683   -7.68248750   2391.24954219-2005.14987527 -537.96432903      0.00000000    0.00000000    0.00000000
    8    4.72634196   -9.42616283   -2.96501463  -1619.69752741-5200.10716241-1105.26968826      0.00000000    0.00000000    0.00000000
    1    5.15753296    8.76698817   -3.36879063      3.45450728   -4.73710105    2.53813929      0.00000000    0.00000000    0.00000000
    1    4.17225296   -9.23642583   -2.15448963  -1282.73575163-5642.44507904 1072.00887284      0.00000000    0.00000000    0.00000000
    8  172.33127375 -168.74837514 -126.47055546      0.00000000    0.00000000    0.00000000      0.00000000    0.00000000    0.00000000
    1  173.29564975 -168.57488014 -126.27094146      0.00000000    0.00000000    0.00000000      0.00000000    0.00000000    0.00000000
    1  171.64424975 -169.41306114 -126.17703346      0.00000000    0.00000000    0.00000000      0.00000000    0.00000000    0.00000000
    8   -6.88073531   -3.89957848    2.92747747   4144.89597957-7521.19786389-1912.74551832      0.00000000    0.00000000    0.00000000
    1   -7.11627031   -4.11029448    3.87620747  -1787.52095804-2167.27223847-9385.74273626      0.00000000    0.00000000    0.00000000
    1   -7.34287331   -3.95452848    2.04239247    614.91261633 -869.36793396 -658.54687701      0.00000000    0.00000000    0.00000000
    8    7.42809928   -3.46756997   -1.26438735      4.81996906    1.79546159    8.24604498      0.00000000    0.00000000    0.00000000
    1    6.57375728   -3.98179397   -1.18928635     15.09252299   -1.94066425  -14.58305606      0.00000000    0.00000000    0.00000000
    1    8.40174428   -3.69216697   -1.30362535     -9.34682579    3.92106804    5.44383502      0.00000000    0.00000000    0.00000000
    8   -2.33053354   -8.24192462   -4.06324130      9.49212216    1.35329806   -8.15785564      0.00000000    0.00000000    0.00000000
    1   -1.90902754   -7.88228762   -4.89568530     -4.72415782   -5.74436033    5.72762127      0.00000000    0.00000000    0.00000000
    1   -2.31399554   -9.10902762   -3.56542030      2.47163451   -2.69649704   -9.09096685      0.00000000    0.00000000    0.00000000
    8   -3.58185835   -8.44858612   -1.28265017     -9.02153267   -8.37022739    6.79990537      0.00000000    0.00000000    0.00000000
    1   -3.41375935   -7.57196612   -0.83182217     -4.56080426 -197.36166208 -243.49337352      0.00000000    0.00000000    0.00000000
    1   -3.43608635   -9.41221212   -1.05872617      0.24777234   -0.85632992   -0.56381965      0.00000000    0.00000000    0.00000000
    8   -8.60175039    8.13911412   -2.62183064   2651.44190342-6175.03656128 4313.03498220      0.00000000    0.00000000    0.00000000
    1   -8.07876239    7.56122212   -1.99533864   -526.27975324 -117.91183291   54.21202105      0.00000000    0.00000000    0.00000000
    1   -9.38438339    8.01437912   -3.23166064   -404.63789247 -752.26010377  199.34928814      0.00000000    0.00000000    0.00000000
    8   -0.00459654    2.57888091    2.85176329      4.61376946    1.21721108   10.10578762      0.00000000    0.00000000    0.00000000
    1    0.97196646    2.37793391    2.77486529     -2.81739223    0.16905513   -2.86874708      0.00000000    0.00000000    0.00000000
    1   -0.73537554    2.84708791    2.22407529      5.39354694   -2.06402379    5.78594495      0.00000000    0.00000000    0.00000000
    8    1.08065363    1.13055664   -2.17862477     -1.69935401   -0.05366480   -2.25618373      0.00000000    0.00000000    0.00000000
    1    1.30839863    0.18854864   -1.93220877      0.54568178   -0.00090570    0.27211040      0.00000000    0.00000000    0.00000000
    1    1.45927963    1.82585964   -2.78949577      0.27935120   -0.35908651    1.26968132      0.00000000    0.00000000    0.00000000
    8    4.79829320    3.68363222   -3.68760343     -4.67167852   -1.77808637   10.82612455      0.00000000    0.00000000    0.00000000
    1    4.69069020    2.70419922   -3.85818543     -0.32162563   -1.76960619    0.89031666      0.00000000    0.00000000    0.00000000
    1    4.20571720    4.48852722   -3.71866543     -1.73181092    0.65230017    0.19885923      0.00000000    0.00000000    0.00000000
    8   -7.21485821   -6.72727886   -4.01272776   -218.06827836 -224.95192208  -68.72894336      0.00000000    0.00000000    0.00000000
    1   -8.08706621   -6.49357586   -3.58307476   1551.02407141-1584.56533938 -245.51021281      0.00000000    0.00000000    0.00000000
    1   -6.29117421   -6.34423686   -4.02006376   -137.73933121-1176.26930077 -317.88969828      0.00000000    0.00000000    0.00000000
    8   -7.14228524   -9.13068841   -9.09521331  -4719.73235575-1209.84467033 2499.22589662      0.00000000    0.00000000    0.00000000
    1   -6.78762924   -8.28706541    9.50169169  **************************** 6946.29328734      0.00000000    0.00000000    0.00000000
    1   -7.98039824   -9.40594141   -8.62429031    944.93053412 -570.17028028-1826.94121095      0.00000000    0.00000000    0.00000000
    8   -7.84530476    2.68825152    9.12174531    -78.98991079   40.05691791  -45.53992613      0.00000000    0.00000000    0.00000000
    1   -8.18403776    1.75326752    9.22678431     -9.77797472    0.86081828  -12.85790546      0.00000000    0.00000000    0.00000000
    1   -7.74554576    3.33661552    8.36700131     -0.70473908   -2.16585288   -0.72135291      0.00000000    0.00000000    0.00000000
    8   -7.51698815   -6.51705636    3.86490614    410.93118547   30.81073055 -383.45707771      0.00000000    0.00000000    0.00000000
    1   -7.47913115   -6.99262736    4.74374914   8524.51452247-2984.09219200-6144.57551431      0.00000000    0.00000000    0.00000000
    1   -8.17536815   -5.93196336    3.39144114     -7.87334480  -26.67497405  -43.65387846      0.00000000    0.00000000    0.00000000
    8   -3.55123506   -4.20883772   -4.73294339     39.32429884  316.09127766  195.29716574      0.00000000    0.00000000    0.00000000
    1   -3.49973206   -3.21955872   -4.59640939    -29.84203448  -76.48299124   -5.64031375      0.00000000    0.00000000    0.00000000
    1   -3.49851406   -4.83083772   -5.51416339    366.07019033  829.61845374  252.69741678      0.00000000    0.00000000    0.00000000
    8   -3.48073958   -6.61220818    8.75424628    413.65076002  109.35834449 -662.48076430      0.00000000    0.00000000    0.00000000
    1   -4.47983158   -6.64654218    8.72968628  18796.28365745 5144.19108751-3947.83479823      0.00000000    0.00000000    0.00000000
    1   -2.73281958   -7.12601218    8.33402328      7.90738569    8.87687278    5.79344638      0.00000000    0.00000000    0.00000000
    8    5.63185845    6.18647021    4.04494285      1.22090004   -6.88269291    0.64550243      0.00000000    0.00000000    0.00000000
    1    5.20213945    6.85795121    3.44126985     -1.48461733  -10.25232271   -0.68938406      0.00000000    0.00000000    0.00000000
    1    5.63567045    6.00115121    5.02759785     -0.36873548    2.52533209   -0.23759217      0.00000000    0.00000000    0.00000000
    8   -5.83659860    1.03964300   -8.68665227   -845.05810560 1333.93074600  -41.56253687      0.00000000    0.00000000    0.00000000
    1   -5.80202760    2.01139700   -8.92003027  -2568.19632757-1218.89703125 -605.30274480      0.00000000    0.00000000    0.00000000
    1   -6.55350560    0.37693100   -8.47026027   3189.26365099 7803.34582261-5191.33271752      0.00000000    0.00000000    0.00000000
    8   -5.45147012    9.40509710    9.12509365   2156.39005455-2574.35681386**************      0.00000000    0.00000000    0.00000000
    1   -4.97797512   -9.06130990   -9.17415935    205.03992172 7650.02746816-4574.43603263      0.00000000    0.00000000    0.00000000
    1   -6.07552512   -9.39659590    8.36931865    983.92743587 -313.98127517-1453.99045932      0.00000000    0.00000000    0.00000000
    8   -6.15170915   -2.12851105    4.52639883   2036.09383065 2263.37993421  520.76160463      0.00000000    0.00000000    0.00000000
    1   -6.33144415   -1.15434105    4.38981983      9.75505790   10.02713178    2.18072040      0.00000000    0.00000000    0.00000000
    1   -5.34048715   -2.69959605    4.65189383    614.52570136  539.84754640 -354.23499652      0.00000000    0.00000000    0.00000000
    8   -2.06505617   -1.52567673    7.72639026      3.43301328   -3.72552244   -0.41244223      0.00000000    0.00000000    0.00000000
    1   -1.94678917   -0.69164373    8.26524826      7.75188895   -5.16401720   -2.96658614      0.00000000    0.00000000    0.00000000
    1   -1.46239117   -2.16518073    7.24911026     -0.56552092    1.54836745   -1.71166832      0.00000000    0.00000000    0.00000000
    8    6.40836341    6.87518974   -8.85903928    -24.12686245    7.61853529    5.58645512      0.00000000    0.00000000    0.00000000
    1    7.26176241    6.46965874   -8.53159228   -609.73092117  -53.90500333  359.86651047      0.00000000    0.00000000    0.00000000
    1    5.44255041    6.82105974   -8.60558028      1.74007403   -0.92825051   -0.79259662      0.00000000    0.00000000    0.00000000
    8    8.30377812   -8.58557865   -4.24610256  -1863.58239674 1401.77037717-1021.71879689      0.00000000    0.00000000    0.00000000
    1    8.94498712   -8.42563665   -3.49561256  -2082.91148438 1135.61829451  242.51677546      0.00000000    0.00000000    0.00000000
    1    7.80016812   -8.01596765   -4.89563056     -0.54304363    1.09180191   -0.42658705      0.00000000    0.00000000    0.00000000
    8    8.57134026   -4.46767224   -7.82052404  -1660.41797720-1128.51486381-2032.77668034      0.00000000    0.00000000    0.00000000
    1    8.11664326   -4.27287424   -8.68958804      1.46484735    0.13560348    1.78584023      0.00000000    0.00000000    0.00000000
    1    9.00609326   -5.26328524   -7.39867504      1.07667362  -15.38222510   -9.76262728      0.00000000    0.00000000    0.00000000
    8   -3.45805834   -6.87177981    5.15033910    195.78601287  692.81969803-1170.47305839      0.00000000    0.00000000    0.00000000
    1   -3.77630934   -7.81952981    5.12904710    803.19652042 2401.96644267-3955.78832708      0.00000000    0.00000000    0.00000000
    1   -3.88758934   -5.96877581    5.15769710     -3.58280935    1.00855335   -2.97913845      0.00000000    0.00000000    0.00000000
    8   -5.35861420    8.49639805   -8.38533721  -1379.83455575-1293.87500476  900.41062430      0.00000000    0.00000000    0.00000000
    1   -5.98427320    7.77441305   -8.08994421    486.65504611 1732.37842739**************      0.00000000    0.00000000    0.00000000
    1   -5.20958320   -9.54208795   -8.15458621  -4568.81435596 1518.83494696 6170.32091944      0.00000000    0.00000000    0.00000000
    8   -3.34667553   -6.20045444    0.82198175     15.56766645  197.51901507  236.28771989      0.00000000    0.00000000    0.00000000
    1   -4.16411853   -6.77460844    0.77616275     -7.65985740    9.69425749   15.47016832      0.00000000    0.00000000    0.00000000
    1   -3.15498553   -5.23443844    0.99529075      0.30199330   -2.44384883    2.23802157      0.00000000    0.00000000    0.00000000
    8   -8.37672538   -2.80731393    3.17699041  -3243.62753325 2869.11912369  621.57866244      0.00000000    0.00000000    0.00000000
    1   -7.49181538   -2.35886293    3.30265841  -4450.98912307 6003.29477025 -241.95929207      0.00000000    0.00000000    0.00000000
    1   -9.33577138   -2.55459593    3.30478141     -1.94366324    4.50650350   -0.02297665      0.00000000    0.00000000    0.00000000
    8   -0.21143106   -6.21276171    6.52888069      2.41306611    2.09776775    3.87065091      0.00000000    0.00000000    0.00000000
    1   -0.34661806   -7.11580171    6.93656969      0.65875805   -0.09169424   -2.29538092      0.00000000    0.00000000    0.00000000
    1   -0.02280306   -5.29125371    6.86830469     -1.67710263   -1.70675470   -1.32660727      0.00000000    0.00000000    0.00000000
    8   -8.16249796   -9.13949540   -6.77030938   8281.39843624  138.12144782 7951.23875808      0.00000000    0.00000000    0.00000000
    1   -9.09084896    9.48895860   -6.76104238    133.15112226 -155.59788974  332.27654646      0.00000000    0.00000000    0.00000000
    1   -7.23846696    9.48995660   -6.67634838    -84.72328771  137.57051827   34.65754526      0.00000000    0.00000000    0.00000000
    8   -1.29189770    4.92238996   -5.92477245  -2752.94739323  451.02723281-4795.41131115      0.00000000    0.00000000    0.00000000
    1   -0.83078970    4.18039396   -6.41138045    -57.37901953  -75.92778097 -374.12194958      0.00000000    0.00000000    0.00000000
    1   -2.17251570    5.39087896   -5.99546145    -34.39222093   14.92364766  -33.70771821      0.00000000    0.00000000    0.00000000
    8    0.04440507   -2.55963525    2.91958326     -0.37220280    0.85193312   -1.06041608      0.00000000    0.00000000    0.00000000
    1   -0.11079193   -2.48588325    1.93447326      0.41764732   -0.30349739    0.85581200      0.00000000    0.00000000    0.00000000
    1    0.80588107   -2.82775225    3.50969626     -0.27402455   -0.97638130   -0.01677197      0.00000000    0.00000000    0.00000000
    8   -6.70694142   -3.89954003    5.46189520   1802.45410478  328.1084127610419.70698583      0.00000000    0.00000000    0.00000000
    1   -5.81249242   -3.55127803    5.74232320    276.02497888-1192.90473520 1027.53127373      0.00000000    0.00000000    0.00000000
    1   -7.62631442   -3.52011503    5.35817820   -149.94704373 -161.98195618  176.86337920      0.00000000    0.00000000    0.00000000
    8   -3.46597363    1.54097104    8.51287906     34.24022913  -34.43913898  -82.61707242      0.00000000    0.00000000    0.00000000
    1   -3.45757463    2.47827204    8.86125106   1443.75921965 -523.59198556-3176.83347321      0.00000000    0.00000000    0.00000000
    1   -3.92317263    0.68628804    8.75875506     35.13310216   -4.63434255  -36.44410911      0.00000000    0.00000000    0.00000000
    8    6.71506743   -4.85402340   -5.83462161    169.25964816  136.25736455 -405.10230573      0.00000000    0.00000000    0.00000000
    1    7.66242643   -4.76761840   -6.14286161   -612.87565715 -191.16773169 1122.24971251      0.00000000    0.00000000    0.00000000
    1    5.85999643   -5.19542540   -6.22483261     -1.21920220    7.32343758  -32.67702135      0.00000000    0.00000000    0.00000000
    8   -9.13381240    2.83585203   -3.54715024    -13.47751521    3.85757840    5.32907578      0.00000000    0.00000000    0.00000000
    1    9.11305860    3.41965003   -3.85037224      1.48717434   -2.74477967   -0.13798780      0.00000000    0.00000000    0.00000000
    1   -8.13558340    2.89474203   -3.54100524   -465.88487877  -60.12795890  283.53054968      0.00000000    0.00000000    0.00000000
    8   -5.09667509    2.87826656    5.49416644    422.74567779 -326.61691421 1220.14431928      0.00000000    0.00000000    0.00000000
    1   -4.45445809    3.16810056    4.78457444    115.92710291   27.53946905   88.71139149      0.00000000    0.00000000    0.00000000
    1   -5.83435309    3.30731656    6.01542644      4.24185051    1.74324301   14.00118581      0.00000000    0.00000000    0.00000000
    8   -3.55988645    9.03153602   -8.42211408   9264.04815124-2044.22289738   95.84024227      0.00000000    0.00000000    0.00000000
    1   -3.30594245   -9.01672198   -8.24987608     53.81568278   -9.60670986   10.21699300      0.00000000    0.00000000    0.00000000
    1   -3.37091645    8.35399402   -9.13288508    371.42948111  -48.25611440 -111.55588847      0.00000000    0.00000000    0.00000000
    8   -8.63389437    9.46935859    7.30980282     -9.16046332   -9.95815443  -31.25029483      0.00000000    0.00000000    0.00000000
    1   -8.18057837   -8.73201341    7.70561182    -18.12085930    4.58904387  -49.74398759      0.00000000    0.00000000    0.00000000
    1    9.46098963    9.26805359    6.93535982     -0.06666915   -2.00128858   -2.51292812      0.00000000    0.00000000    0.00000000
    8    8.02975298   -1.66678931   -6.64028619     -6.12158171   -0.03800993  -28.49795836      0.00000000    0.00000000    0.00000000