 BEGIN_INFO
   #
   # This is a XCRYSDEN-Structure-File
   # aimed for Visualization of Fermi Surface
   #
   # Case: Tight-binding calculation
   #
   # Launch as: xcrysden --xsf HICOLM.XSF
   #
 END_INFO
 # estrutura final
CRYSTAL
PRIMVEC
      19.00000000       0.00000000       0.00000000
       0.00000000      19.00000000       0.00000000
       0.00000000       0.00000000      19.00000000
PRIMCOORD
  300    1
    8    5.30060691   -6.76626800    0.93391652     31.70577565  115.63203824   45.24883870      0.00000000    0.00000000    0.00000000
    1    4.72772963   -5.95486682    0.81812283     -0.47292994    4.35643464    1.51133324      0.00000000    0.00000000    0.00000000
    1    5.30710682   -7.56181635    1.53932632     -4.86682680  -13.76533734    4.78279901      0.00000000    0.00000000    0.00000000
    8    5.42311393    1.20705324   -3.35941954   -620.09374848   64.48260512  879.32364362      0.00000000    0.00000000    0.00000000
    1    5.79937605    0.33123594   -3.65597876     25.57417445  -58.05674981  -45.77337966      0.00000000    0.00000000    0.00000000
    1    5.78918392    2.11380356   -3.14573494     10.29807449   19.90372268   -7.14682577      0.00000000    0.00000000    0.00000000
    8    2.38641140    1.12694496   -7.63716546      0.00492207  -27.66101339  -25.33530381      0.00000000    0.00000000    0.00000000
    1    2.11524527    1.51824270   -8.51643117      0.94642606    5.07040778    2.33552912      0.00000000    0.00000000    0.00000000
    1    3.19076178    0.65320949   -7.27808226     -0.25533380    5.42209706    4.78068836      0.00000000    0.00000000    0.00000000
    8   -3.20061164    4.06708123    5.78406658    -48.39120228  -56.25447588  171.54009021      0.00000000    0.00000000    0.00000000
    1   -2.41396434    3.50009428    6.02739350      2.87408328    5.30450992    4.14846496      0.00000000    0.00000000    0.00000000
    1   -4.06332400    3.92972156    5.29694507      9.80351194    1.25679404    1.45275904      0.00000000    0.00000000    0.00000000
    8   -2.50048775   -8.01141324   -3.98977058      4.00109612   -5.52545220   -0.83451401      0.00000000    0.00000000    0.00000000
    1   -1.82995676   -7.48954903   -3.46253061     -0.35042108    1.77751760    0.80819985      0.00000000    0.00000000    0.00000000
    1   -3.06439481   -7.84732332   -4.79916652     -2.16569868    3.24126759   -0.68081761      0.00000000    0.00000000    0.00000000
    8    0.32248175   -3.61732840   -7.06254849   -111.74599977 -126.02160423  -32.19230911      0.00000000    0.00000000    0.00000000
    1    0.04048901   -4.21062434   -7.81644908      0.97086413    3.33861704   -1.43135339      0.00000000    0.00000000    0.00000000
    1    0.24062288   -2.64548593   -6.84240959      1.35458896    1.47328316  -12.56788215      0.00000000    0.00000000    0.00000000
    8    3.42397194   -1.49177412    7.31664067     19.98235255  -17.70945081   15.15757583      0.00000000    0.00000000    0.00000000
    1    2.96167251   -2.37771736    7.34880421      6.17108958    2.55364835   -6.52799339      0.00000000    0.00000000    0.00000000
    1    3.15656852   -0.53638225    7.44072890     -7.46180250    5.10217699   -0.79136645      0.00000000    0.00000000    0.00000000
    8   -6.43804116   -0.03317282    4.21729658     -3.65164138   -0.17426375   -9.42435401      0.00000000    0.00000000    0.00000000
    1   -6.95548955    0.82017785    4.15370058     -0.32515687   -1.43867238    1.21948489      0.00000000    0.00000000    0.00000000
    1   -6.50349361   -0.87581922    4.75153948      0.44278629    1.24509781    3.98921537      0.00000000    0.00000000    0.00000000
    8    0.45974271    5.12708090    2.55032045    119.33802584 -935.33425874  936.15568289      0.00000000    0.00000000    0.00000000
    1   -0.15974043    5.84983974    2.86237507    -27.29082930    2.02325041    7.03856099      0.00000000    0.00000000    0.00000000
    1    0.37810624    4.31165709    1.97745933     18.17989013    9.20712181   -3.02794802      0.00000000    0.00000000    0.00000000
    8   -3.53018862    5.65931846   -5.21697307     -0.19989838    5.40778631   -6.35822133      0.00000000    0.00000000    0.00000000
    1   -4.46660781    6.00993105   -5.20732215      0.92388992    0.81954711    0.77446302      0.00000000    0.00000000    0.00000000
    1   -2.62613211    6.02850188   -5.43236123     -4.46419968   -1.30931668    1.45626949      0.00000000    0.00000000    0.00000000
    8   -5.09316436    0.86340817    1.41450440    163.53046716 -155.19019590   53.34705023      0.00000000    0.00000000    0.00000000
    1   -5.81136921    0.16758957    1.42654199     -1.02074045    1.51737311    1.20666896      0.00000000    0.00000000    0.00000000
    1   -4.41683287    1.21041664    2.06421152     -0.28538732   -8.57761127   -0.30777488      0.00000000    0.00000000    0.00000000
    8    0.36417726   -7.25920584   -7.36140784     -2.53578190   -9.03435890   -2.08630947      0.00000000    0.00000000    0.00000000
    1   -0.01088085   -6.33224547   -7.36209822      2.32795266   -0.88296800    3.77679547      0.00000000    0.00000000    0.00000000
    1   -0.01014080   -8.18658031   -7.35707531      3.43816625   -3.23685016   -0.52133838      0.00000000    0.00000000    0.00000000
    8   -5.02622013    1.90189887    7.12560888   -140.64614547  717.45285842  248.91994222      0.00000000    0.00000000    0.00000000
    1   -4.08203455    1.62427080    6.93678810     -5.59221876  -15.14036936   -6.12055248      0.00000000    0.00000000    0.00000000
    1   -5.79598772    2.24278716    6.59087051      0.95103211   -3.52235934    2.82464848      0.00000000    0.00000000    0.00000000
    8   -8.54328878   -4.22902889   -2.77749308      0.19655292    0.28857490    0.18974543      0.00000000    0.00000000    0.00000000
    1   -9.41823303   -4.71024104   -2.83092772      0.64975992    0.71472538    1.96968045      0.00000000    0.00000000    0.00000000
    1   -7.63465349   -4.42710099   -2.40988281      0.47972513   -0.41507681   -0.32337228      0.00000000    0.00000000    0.00000000
    8   -3.82940843   -0.00723863   -5.97983387      2.36858362   -6.22711663    0.52580482      0.00000000    0.00000000    0.00000000
    1   -4.80088373    0.06738547   -5.75526173     -2.51984751    4.15085896    0.94579340      0.00000000    0.00000000    0.00000000
    1   -3.09839803    0.62731101   -6.23093147     -1.04282474    1.76103895   -1.23148049      0.00000000    0.00000000    0.00000000
    8   -8.41853097   -0.03543368   -8.53674579     -4.20390734    2.61424142    1.87184507      0.00000000    0.00000000    0.00000000
    1   -8.51283509    0.95997098   -8.54762364      1.28591763    3.33398283   -0.08553572      0.00000000    0.00000000    0.00000000
    1   -8.97918531   -0.81424857   -8.81808109      1.05654819   -0.10979083   -0.12465890      0.00000000    0.00000000    0.00000000
    8    1.85314277   -7.04044424    5.95917315    211.98218072 -608.33094771  618.36523917      0.00000000    0.00000000    0.00000000
    1    1.53241143   -6.31575298    6.56632924     43.41685304    5.67416523   51.09295572      0.00000000    0.00000000    0.00000000
    1    2.72369001   -7.30050051    5.53825493      8.14604853   16.49506529  -31.25153995      0.00000000    0.00000000    0.00000000
    8    8.01256410    4.10401393    3.13028995    -16.50904646   -4.58009422   -2.15116927      0.00000000    0.00000000    0.00000000
    1    8.54637598    3.26081009    3.06733385      3.04667063   -2.10693054   -0.60698471      0.00000000    0.00000000    0.00000000
    1    7.44253256    4.64272080    2.50951656     13.30187657    3.79671297   -4.58213093      0.00000000    0.00000000    0.00000000
    8   -3.05736713    4.94022219   -1.56401303      4.38339944   -1.64047308    7.90841247      0.00000000    0.00000000    0.00000000
    1   -2.74694247    5.67186930   -0.95720193     -3.86493321    0.79292255   -7.09131650      0.00000000    0.00000000    0.00000000
    1   -3.04589503    3.94033592   -1.54967792     -0.76036207   -0.93857199   -6.94270085      0.00000000    0.00000000    0.00000000
    8    1.04794082    0.30040421    5.76499559    137.29987046  562.67331793 -364.91477396      0.00000000    0.00000000    0.00000000
    1    1.62234583    0.42994362    4.95581323      2.64434641    0.22630506    3.61793675      0.00000000    0.00000000    0.00000000
    1    0.11985306   -0.02276932    5.94351620      9.48840417   -8.00080748   -7.48342709      0.00000000    0.00000000    0.00000000
    8    3.46665481    6.45664916    1.55290572    584.81302638  436.70230865  -74.19119283      0.00000000    0.00000000    0.00000000
    1    2.93684104    5.61251564    1.63015693     -6.39234322  -59.64966214   -4.60224156      0.00000000    0.00000000    0.00000000
    1    4.43486650    6.69231409    1.46665298     25.58107092    8.52893833  -13.24002920      0.00000000    0.00000000    0.00000000
    8   -8.13075590    3.53975706   -0.43923954    -31.05140484   40.74959593  -36.39008155      0.00000000    0.00000000    0.00000000
    1   -8.21673131    2.55127104   -0.39357965     -3.13487256   -7.70521876   -0.33009143      0.00000000    0.00000000    0.00000000
    1   -8.75572701    4.32284562   -0.49254370     -2.57921209   -2.82279562    2.74699342      0.00000000    0.00000000    0.00000000
    8    1.76496489   -1.94858601   -6.60930515    105.74542917  122.22762563   35.62240604      0.00000000    0.00000000    0.00000000
    1    1.74076378   -1.51142200   -7.50845993      1.18739270   -0.28549913   -0.98787987      0.00000000    0.00000000    0.00000000
    1    1.08804489   -2.24652667   -5.93591999     12.32314026   -2.76224046    9.87970645      0.00000000    0.00000000    0.00000000
    8    0.36093939   -7.66417745    2.29266104     -3.80718350    0.94331937   -7.23446333      0.00000000    0.00000000    0.00000000
    1   -0.04653455   -8.56088068    2.46571698      3.59015777   -0.82702265    4.42013520      0.00000000    0.00000000    0.00000000
    1    0.02830903   -6.72329410    2.22887179     -1.06752816   -3.03257451    1.85695194      0.00000000    0.00000000    0.00000000
    8   -2.27331563   -8.84875923   -9.41460410     -0.57388273    0.54826978    2.60518087      0.00000000    0.00000000    0.00000000
    1   -3.17972653   -8.71466136    9.18874777      2.73966245   -0.46536490   -0.82643418      0.00000000    0.00000000    0.00000000
    1   -1.60795172   -8.27750348   -8.93378200      0.96229985   -0.03147913   -5.84110037      0.00000000    0.00000000    0.00000000
    8   -7.78181097    7.96628843    1.98570930     -3.25438927    3.26094134   -1.34262197      0.00000000    0.00000000    0.00000000
    1   -8.48913177    7.33410257    1.66961894     -1.29582622    0.85141010    1.31709849      0.00000000    0.00000000    0.00000000
    1   -6.81189181    7.90148335    2.22061545     -2.62498626   -3.07658676    0.62610481      0.00000000    0.00000000    0.00000000
    8   -6.55235387    2.45241189    0.97020100   -104.51070651  125.46013052    8.00653420      0.00000000    0.00000000    0.00000000
    1   -5.92996492    2.45325080    1.74921940      2.21214365   -7.99878520   -8.51341001      0.00000000    0.00000000    0.00000000
    1   -6.86355675    3.10965223    0.28735959    -15.00404593   14.82656683  -12.43875637      0.00000000    0.00000000    0.00000000
    8   -6.83909141    4.32548789    5.13135099      9.76709716   -5.17764766   -4.30610857      0.00000000    0.00000000    0.00000000
    1   -7.49920473    3.57534798    5.09194693     -3.98213668    2.83973061    1.59767716      0.00000000    0.00000000    0.00000000
    1   -5.84627571    4.40616985    5.21933414     -1.10522575    5.78760720    5.48643643      0.00000000    0.00000000    0.00000000
    8    3.28619784   -6.87129583   -6.07161296    -37.20488587   -9.89570830  -86.56593086      0.00000000    0.00000000    0.00000000
    1    3.81912207   -6.07726548   -5.77968922     -8.62926509   -5.19639553    1.67815152      0.00000000    0.00000000    0.00000000
    1    2.46821152   -7.34683813   -5.74827892     -2.89784208    1.03821827   -6.39397180      0.00000000    0.00000000    0.00000000
    8    4.95157999    3.04272238    3.61034308     50.46552027  -57.09237064 -105.82061570      0.00000000    0.00000000    0.00000000
    1    3.99037069    3.31812859    3.61280560      1.58897491    2.40423656    5.47328718      0.00000000    0.00000000    0.00000000
    1    5.83491687    3.51190336    3.60679520     -6.52292086  -26.16688920   10.21019099      0.00000000    0.00000000    0.00000000
    8    2.75049250   -3.60657127    2.93981268   -459.86407180-1157.31449899  144.88789704      0.00000000    0.00000000    0.00000000
    1    3.61125402   -4.02863742    3.22160396      1.33691313    5.89308959   -3.51831822      0.00000000    0.00000000    0.00000000
    1    1.81674107   -3.92111518    2.76703850      4.06977303    1.64948450   -0.21146325      0.00000000    0.00000000    0.00000000
    8    7.45753118    7.92814093    5.91962730     30.23543107   -6.46077833   24.13195944      0.00000000    0.00000000    0.00000000
    1    7.29928765    8.91078209    6.01213465      2.40826510   -2.74659242   14.35455982      0.00000000    0.00000000    0.00000000
    1    8.25558387    7.32543187    5.91724687      0.86302672   -5.37925443    1.22867759      0.00000000    0.00000000    0.00000000
    8    5.44337433    2.89104750    1.29068001    549.18738428 -112.38443990  615.01680524      0.00000000    0.00000000    0.00000000
    1    4.60252177    2.44352622    0.98666213     -0.70371047   30.93103118  -16.65802710      0.00000000    0.00000000    0.00000000
    1    5.67643863    3.61650952    1.93928227    -19.14211462  -30.11678352   -5.77241218      0.00000000    0.00000000    0.00000000
    8   -4.68428233    0.01928159    6.50465669    151.52134589 -722.36118801 -243.20459960      0.00000000    0.00000000    0.00000000
    1   -4.25530532   -0.78748148    6.09928404     -0.78903743    3.66880165   -0.15583597      0.00000000    0.00000000    0.00000000
    1   -5.24107010    0.20915126    7.31323826     -0.47242041   17.95853610    2.38106754      0.00000000    0.00000000    0.00000000
    8    4.38571852    3.60660910    5.69603052    425.54291126 -547.13375194   75.09082593      0.00000000    0.00000000    0.00000000
    1    5.34821331    3.77903823    5.89779275     17.72629100    6.93045385   -5.84397541      0.00000000    0.00000000    0.00000000
    1    3.69887254    2.94028918    5.99073372     37.42930900  -50.25898162   57.68300138      0.00000000    0.00000000    0.00000000
    8    2.70159542    5.73445160   -6.60135483    658.22342136 -374.23889433 -553.19292374      0.00000000    0.00000000    0.00000000
    1    2.46911807    5.52492201   -5.65040932      9.63771585   -9.01996310   47.80058365      0.00000000    0.00000000    0.00000000
    1    2.24174206    5.68155772   -7.48371847     -1.52298972   -2.32457104    0.39492828      0.00000000    0.00000000    0.00000000
    8   -2.07180486    6.03219238    8.23620518      3.54706665   -3.04324094    8.05030506      0.00000000    0.00000000    0.00000000
    1   -2.92619846    5.51781031    8.31139431     -3.83054514   -0.91699697   -3.37319083      0.00000000    0.00000000    0.00000000
    1   -1.09819308    5.80747672    8.19704572     -3.75524842    0.24122987   -0.84291804      0.00000000    0.00000000    0.00000000
    8    7.04804955    1.56159420    5.21811266   -239.68473512  635.29954207 -462.72915699      0.00000000    0.00000000    0.00000000
    1    7.47306015    1.91925072    4.38151676     -5.54071886   -4.82084260    7.75375516      0.00000000    0.00000000    0.00000000
    1    7.06874207    0.69285489    5.71091120     38.88819696  -24.12947547   35.68455970      0.00000000    0.00000000    0.00000000
    8    5.93645563    1.01872099    8.15891707    164.87163654 -281.75002873 -495.37923364      0.00000000    0.00000000    0.00000000
    1    6.10414236    1.89399681    8.61026142     -0.90393401    6.58334479   20.62474624      0.00000000    0.00000000    0.00000000
    1    6.08163033    0.05431430    8.38337721      2.87094633    7.65417047    3.53016498      0.00000000    0.00000000    0.00000000
    8    0.83628798   -1.37440576    6.88420933   -108.28158723 -584.14678496  390.52333338      0.00000000    0.00000000    0.00000000
    1    1.35794551   -1.95200604    7.51093252     -1.89364348    7.24718098   -0.82861455      0.00000000    0.00000000    0.00000000
    1    0.05269426   -1.49867785    6.27461261      5.28355709   -6.69691792    1.88440502      0.00000000    0.00000000    0.00000000
    8    9.49479455   -6.92103388   -6.64888043     -6.50398956   -2.13112920   -3.38067340      0.00000000    0.00000000    0.00000000
    1   -8.52782624   -7.12232270   -6.72653265      0.50460424    2.30531321    0.34159864      0.00000000    0.00000000    0.00000000
    1    8.76399927   -6.65309011   -7.27631803     -0.82580259   -0.94453623   -0.70617333      0.00000000    0.00000000    0.00000000
    8   -8.41931637   -8.36923260    7.32155582      0.36567021    2.13890727    1.77504916      0.00000000    0.00000000    0.00000000
    1   -8.19144911   -9.31126898    7.56806979      0.92224106   -2.22884806   -1.72763345      0.00000000    0.00000000    0.00000000
    1   -8.04066991   -7.67387011    6.71077712      1.37850582   -1.84711159    1.08541566      0.00000000    0.00000000    0.00000000
    8   -4.70106637   -5.81649096    5.81197947      6.68701934   -1.43370721   -3.89749553      0.00000000    0.00000000    0.00000000
    1   -4.80868008   -6.79587943    5.64144279      0.53851062   -2.53839720    2.33824297      0.00000000    0.00000000    0.00000000
    1   -5.29366554   -5.01154395    5.78094142      1.16487857   -0.50600771    1.74765183      0.00000000    0.00000000    0.00000000
    8    2.27732652    2.76785342    5.48601710   -108.64648324  -71.53274370  -22.84628045      0.00000000    0.00000000    0.00000000
    1    1.40491558    3.00145776    5.91577987     -8.08349535    9.62236455    3.74065299      0.00000000    0.00000000    0.00000000
    1    3.19931196    3.15132160    5.47942563    -20.60856355   41.72514702  -61.15280369      0.00000000    0.00000000    0.00000000
    8    2.30041863    0.40529778    0.39820761   -600.86663660  135.14701949  199.26855275      0.00000000    0.00000000    0.00000000
    1    2.65505838    1.24920820   -0.00513000      5.48473032    0.30480523   -2.94000043      0.00000000    0.00000000    0.00000000
    1    1.46228579    0.13027306    0.86893209     -4.26368519    4.31489067    6.84672817      0.00000000    0.00000000    0.00000000
    8    1.65583212   -6.81064994   -0.37805673      4.60056438   15.76301052   -4.18111764      0.00000000    0.00000000    0.00000000
    1    1.31707578   -7.74563443   -0.27311927     -3.10599618   -0.18757450    1.35976307      0.00000000    0.00000000    0.00000000
    1    1.75559599   -6.16227705   -1.13284681     -0.22889028   -2.81475757   -0.35101744      0.00000000    0.00000000    0.00000000
    8    2.06464638    3.00831455   -5.81372696    328.61357142  104.69596131 -697.09752301      0.00000000    0.00000000    0.00000000
    1    2.10385914    2.53309101   -4.93417459    -13.66392530   16.28905578   27.64419466      0.00000000    0.00000000    0.00000000
    1    1.40713726    3.59343573   -6.28690622      7.94583982    5.68571371    2.99631190      0.00000000    0.00000000    0.00000000
    8    5.95237869    5.29113212    4.76319251     43.30563372   34.50082865  -22.28297544      0.00000000    0.00000000    0.00000000
    1    6.00407582    6.28014478    4.89981995      0.66418695    4.81431337   10.77858664      0.00000000    0.00000000    0.00000000
    1    6.00514221    4.66867795    3.98244831     -3.50218941   18.96379793   17.31065211      0.00000000    0.00000000    0.00000000
    8    6.06590156    2.89676012   -0.78874940    374.67630819   70.44252273 -370.92079184      0.00000000    0.00000000    0.00000000
    1    5.06716362    2.86175011   -0.81321483    -24.09727985  -15.02977510   12.56242761      0.00000000    0.00000000    0.00000000
    1    6.81406425    2.38255859   -1.20866552     -7.54809936    3.83847678   -0.31507069      0.00000000    0.00000000    0.00000000
    8   -3.86783891   -3.31413495   -5.45511573      3.47974424   -7.98948922   -0.94793964      0.00000000    0.00000000    0.00000000
    1   -4.29743239   -2.64258264   -6.05890946      0.26781452    6.90701829    3.16597304      0.00000000    0.00000000    0.00000000
    1   -3.86401345   -3.49945680   -4.47246856      1.41878618    1.33554861    0.80908955      0.00000000    0.00000000    0.00000000
    8    3.66796291   -8.48462764    0.81478734    -54.58067534  -44.25775704   -0.02835497      0.00000000    0.00000000    0.00000000
    1    3.70254852   -7.51284577    0.58164660      1.75695043    7.34992993   -1.62597381      0.00000000    0.00000000    0.00000000
    1    2.95086826   -9.14741073    1.03110797     -5.05268281   -0.66643394    5.66330942      0.00000000    0.00000000    0.00000000
    8    4.14726670    0.12012434   -0.41973422    587.18178974  645.21771589-1279.87704501      0.00000000    0.00000000    0.00000000
    1    4.62074169    0.65197809    0.27906085     27.71402269  -44.81855109  -13.65190753      0.00000000    0.00000000    0.00000000
    1    3.52312801    0.31637062   -1.17672638      3.36348730   -6.49270872   -0.36647393      0.00000000    0.00000000    0.00000000
    8    3.35471266    7.40482250   -4.98473767    195.79514512  492.60190080  -60.18546928      0.00000000    0.00000000    0.00000000
    1    3.17461701    8.37906309   -5.12147814      6.18027551    5.69138339    1.17760790      0.00000000    0.00000000    0.00000000
    1    4.16520189    6.83405592   -4.85932028      6.82419345    8.72950361  -16.00562287      0.00000000    0.00000000    0.00000000
    8    7.43514448    7.97405047   -1.77294882      2.59769780   -4.15158259    7.68311943      0.00000000    0.00000000    0.00000000
    1    7.55336133    8.80815901   -1.23386752     -0.41790206    8.07182955   -1.80276183      0.00000000    0.00000000    0.00000000
    1    8.03768397    7.33470085   -2.25016735     -0.51920231    1.42405016   -5.06805625      0.00000000    0.00000000    0.00000000
    8   -3.09335778   -2.62386677    0.64158725    -22.60906206   11.55362609    8.47578438      0.00000000    0.00000000    0.00000000
    1   -2.23985737   -3.02944258    0.96913795      7.78919193   -0.96494333   -8.84946871      0.00000000    0.00000000    0.00000000
    1   -4.05916146   -2.67798426    0.89512540      1.99474382   -3.08336511    0.45083041      0.00000000    0.00000000    0.00000000
    8   -1.18226923    0.89942364    5.26361342    -81.67205862   11.45306674  -23.21017858      0.00000000    0.00000000    0.00000000
    1   -0.54141376    1.05969863    6.01401522     11.75053436   19.37421855    4.11836857      0.00000000    0.00000000    0.00000000
    1   -1.68593092    1.46906841    4.61406394     -2.32062042    3.70300512   -0.36153018      0.00000000    0.00000000    0.00000000
    8   -1.21884402    4.98586418    1.54588915   -897.25302236  -84.12387635 -555.13407096      0.00000000    0.00000000    0.00000000
    1   -1.67230586    5.18179323    0.67417415     -0.68572015   -2.30702127   -0.42179904      0.00000000    0.00000000    0.00000000
    1   -0.78278647    4.19130216    1.96526391    -11.37147967    1.52904747   -0.29514588      0.00000000    0.00000000    0.00000000
    8    6.10337640    2.76913028   -4.37691226    318.30838720  728.00084956 -444.31689170      0.00000000    0.00000000    0.00000000
    1    5.78383523    1.82060156   -4.40040480    -19.46639657  -30.17835404   18.01472528      0.00000000    0.00000000    0.00000000
    1    5.67299569    3.67168877   -4.37100556     -2.11838778    2.69867884   -1.57247403      0.00000000    0.00000000    0.00000000
    8    4.02334550   -1.14855890    1.04325927   -376.82232694 -835.50556545 -793.43186845      0.00000000    0.00000000    0.00000000
    1    3.39702138   -1.87046822    1.34077963    -59.02546094   45.51334829  -34.11209001      0.00000000    0.00000000    0.00000000
    1    4.17209590   -0.18669887    1.27529481     19.37605035  -18.98319678   -2.39970447      0.00000000    0.00000000    0.00000000
    8    6.30488600    3.55371863   -8.59269396    475.34728765  750.37359451  239.84718139      0.00000000    0.00000000    0.00000000
    1    5.48115301    2.98304381   -8.64150573     -7.66006890  -45.30850699  -14.73520814      0.00000000    0.00000000    0.00000000
    1    6.49206660    4.52286173   -8.42139643     -1.45231819   -7.11933611    1.64367902      0.00000000    0.00000000    0.00000000
    8    0.99047184    6.75241648   -6.30810608   -687.31268320  380.85112035  108.41932313      0.00000000    0.00000000    0.00000000
    1    1.87337783    7.19797837   -6.18594404     25.42453511   -9.47419630   -0.58661160      0.00000000    0.00000000    0.00000000
    1    0.02972921    7.00274187   -6.18314772      4.23455044    5.39841012   -3.05242718      0.00000000    0.00000000    0.00000000
    8    9.28848858    3.28742918   -2.97121992     -0.70058125    2.50116963    0.11866839      0.00000000    0.00000000    0.00000000
    1    9.15323509    2.38460099   -2.56357092      1.45965274   -0.38311761   -7.48265910      0.00000000    0.00000000    0.00000000
    1    9.47704993    4.20900052   -2.63193381      0.04396663   -3.87591903   -2.08366184      0.00000000    0.00000000    0.00000000
    8    1.00515436    0.35445451    2.48231253    162.39333493  -91.46421977  277.21989766      0.00000000    0.00000000    0.00000000
    1    0.07697826   -0.01717876    2.49160193     -3.92919467  -24.78956076   54.66443658      0.00000000    0.00000000    0.00000000
    1    1.92909778   -0.01606856    2.57632329      4.52029064    3.33529332   -2.85314066      0.00000000    0.00000000    0.00000000
    8    8.16940820   -4.54325084    3.47119897   -317.88604647  149.81207133 -697.08258010      0.00000000    0.00000000    0.00000000
    1    8.62917410   -5.28754423    2.98471937     -1.32822801    1.54595072    4.52498327      0.00000000    0.00000000    0.00000000
    1    7.28756551   -4.07690759    3.40058721      1.59318862   -2.30157754    2.13924964      0.00000000    0.00000000    0.00000000
    8   -9.45595819    6.94045569   -6.58056772     -3.56966013    1.37208399   -2.45982967      0.00000000    0.00000000    0.00000000
    1    9.38802256    7.01437325   -7.56662155     -2.08427390   -3.00269278    1.27180391      0.00000000    0.00000000    0.00000000
    1   -8.69451134    6.67231657   -5.99043624     -0.58756997   -2.46478792   -0.94360212      0.00000000    0.00000000    0.00000000
    8    2.60218332    5.52921337   -4.49835304   -191.48414137 -496.59741999  481.38215124      0.00000000    0.00000000    0.00000000
    1    3.49663502    5.87779257   -4.21747645    -11.47229986    3.81851865    0.91065536      0.00000000    0.00000000    0.00000000
    1    1.68298166    5.90883620   -4.60177693     -5.82559941   12.43330454   -0.56433228      0.00000000    0.00000000    0.00000000
    8    6.03647452   -7.96231686   -0.99286754     30.09373868  -40.72363989  -72.55061056      0.00000000    0.00000000    0.00000000
    1    6.04445546   -7.02535994   -0.64457269     -6.09277430    4.19038830   13.16065092      0.00000000    0.00000000    0.00000000
    1    5.57910214   -8.81712101   -0.74698173     -3.52013262    5.79592576    3.09865534      0.00000000    0.00000000    0.00000000
    8   -2.78496016    4.64760701    3.65397193     15.73519794   29.10071345 -153.92111843      0.00000000    0.00000000    0.00000000
    1   -1.83767052    4.73402525    3.34571370     -1.98317654   10.39620384   -4.84345492      0.00000000    0.00000000    0.00000000
    1   -3.63994757    4.30632331    3.26365193      6.48321078    2.96657732   -1.55476322      0.00000000    0.00000000    0.00000000
    8   -0.03227723   -6.51066084    6.04503784  -1048.86311139  319.12643576   65.76667450      0.00000000    0.00000000    0.00000000
    1   -0.78336005   -5.92163018    5.74748151      4.42705788   -8.04377574   -2.70973618      0.00000000    0.00000000    0.00000000
    1    0.97222059   -6.44592456    6.05670224      3.84923793  -71.08102459  -72.75754340      0.00000000    0.00000000    0.00000000
    8    4.40249845   -6.61670488   -4.01157098     38.97469720   18.40286147   74.77232351      0.00000000    0.00000000    0.00000000
    1    5.04451254   -6.32698917   -4.72124300      4.45584272   -7.60283576    7.56232885      0.00000000    0.00000000    0.00000000
    1    3.66481741   -6.18761013   -3.49038077      2.32096798   -5.31861473   -0.23704862      0.00000000    0.00000000    0.00000000
    8    5.65495420   -0.09792680    1.33301279     68.34659644 1219.49175351  901.74227507      0.00000000    0.00000000    0.00000000
    1    5.90970472    0.85646274    1.50215071     12.27181509    7.21953471    6.17352293      0.00000000    0.00000000    0.00000000
    1    5.84478139   -0.77257736    0.61894694     32.48348005  -22.76601087  -14.32770861      0.00000000    0.00000000    0.00000000
    8    0.86590840   -0.02990283   -2.18915300     -3.87333047    7.38546904    8.35706709      0.00000000    0.00000000    0.00000000
    1    1.31919290    0.76871490   -1.79337077      4.35208117   -3.13168348   -3.29096428      0.00000000    0.00000000    0.00000000
    1   -0.03921367   -0.23122570   -2.56359528      2.06178317   -0.71798337   -2.16694259      0.00000000    0.00000000    0.00000000
    8   -1.46961724    7.83316383    2.85966847      6.34960932    0.89647528   -2.48862289      0.00000000    0.00000000    0.00000000