 BEGIN_INFO
   #
   # This is a XCRYSDEN-Structure-File
   # aimed for Visualization of Fermi Surface
   #
   # Case: Tight-binding calculation
   #
   # Launch as: xcrysden --xsf HICOLM.XSF
   #
 END_INFO
 # estrutura final
CRYSTAL
PRIMVEC
      18.00000000       0.00000000       0.00000000
       0.00000000      18.00000000       0.00000000
       0.00000000       0.00000000      18.00000000
PRIMCOORD
  585    1
    8           NaN           NaN           NaN      0.00000000    0.00000000    0.00000000      0.00000000    0.00000000    0.00000000
    1           NaN           NaN           NaN      0.00000000    0.00000000    0.00000000      0.00000000    0.00000000    0.00000000
    1           NaN           NaN           NaN      0.00000000    0.00000000    0.00000000      0.00000000    0.00000000    0.00000000
    8   -5.40233764   -8.90594555    6.29362139     10.87616930    7.99528356   -0.30620699      0.00000000    0.00000000    0.00000000
    1   -4.50948873    8.84857845    5.91609210      1.61074271   -6.58505140    3.97886861      0.00000000    0.00000000    0.00000000
    1   -6.28881664   -8.62946256    5.92256839     -1.59963161   -5.96244429   -1.63593542      0.00000000    0.00000000    0.00000000
    8    3.07892825   -8.90711466    7.57492128      2.78150533    3.00913352    2.23066115      0.00000000    0.00000000    0.00000000
    1    2.71056111    8.61269035    8.37096407      1.30033445   -1.13224945    2.54655808      0.00000000    0.00000000    0.00000000
    1    2.74607825   -8.66442367    6.66372528     -7.63293234   -1.67586688   -1.71933873      0.00000000    0.00000000    0.00000000
    8    8.90281543   -5.40606348    0.25813558   -251.93502415  164.63157578  290.53081012      0.00000000    0.00000000    0.00000000
    1    7.92287839   -5.24525157    0.14053080     -5.32100069   -2.46484787    4.96179691      0.00000000    0.00000000    0.00000000
    1   -8.25827066   -4.88744601    0.09314642     -4.63815860   41.42351372   -2.97001344      0.00000000    0.00000000    0.00000000
    8    2.51555890    6.41414319    5.90722237    -15.00379205   -6.39319230    3.08283097      0.00000000    0.00000000    0.00000000
    1    2.16932583    5.80585133    5.19302929      4.94333341    1.63351536    3.06379030      0.00000000    0.00000000    0.00000000
    1    2.73096086    6.33158603    6.88023437      2.99256163    2.24944198    0.44469854      0.00000000    0.00000000    0.00000000
    8   -3.24106708    1.76840350   -2.87943493    -79.49259821  194.33338914  -85.54412614      0.00000000    0.00000000    0.00000000
    1   -2.94263403    2.67291948   -2.57487693     -0.18136890   -8.40573085   -4.73978359      0.00000000    0.00000000    0.00000000
    1   -4.10781808    1.35112559   -3.15254406     -7.48890801   -3.26473690   -3.86107382      0.00000000    0.00000000    0.00000000
    8   -1.95122961    7.84078590    7.64279247   -338.62130705   -4.33090974 -121.85943299      0.00000000    0.00000000    0.00000000
    1   -1.53994090    8.59938411    8.14810022     11.10422135   -4.00094755    2.36122032      0.00000000    0.00000000    0.00000000
    1   -2.60306037    7.11032039    7.84651538     -0.75700955    9.85594292    8.74634219      0.00000000    0.00000000    0.00000000
    8   -4.75410536    0.27480906    8.59653789    254.56076263  167.56402168 -324.53175450      0.00000000    0.00000000    0.00000000
    1   -5.48651562    0.11750570    7.93412002     14.44613910    9.32597997  -23.82444311      0.00000000    0.00000000    0.00000000
    1   -3.77095511    0.09678216    8.63761881     -7.63352461    8.89871088    1.12798221      0.00000000    0.00000000    0.00000000
    8    2.65848058    4.11416271   -0.00699623      0.99874022  -17.32407092  -13.65079388      0.00000000    0.00000000    0.00000000
    1    1.81631652    3.57497581   -0.00501708     -0.39327899    3.95326152    6.50363914      0.00000000    0.00000000    0.00000000
    1    3.63881656    3.91695260   -0.01126460     -1.52650909    6.25505595   12.93599045      0.00000000    0.00000000    0.00000000
    8   -5.10106315    2.38265721    0.46348381    340.08453033  208.62523756  761.50262005      0.00000000    0.00000000    0.00000000
    1   -5.77073829    1.66082779    0.63802708    -19.47846292    8.40215782   -1.73493868      0.00000000    0.00000000    0.00000000
    1   -4.13067902    2.42120530    0.22508368     -5.30281472    0.26342226    0.57173729      0.00000000    0.00000000    0.00000000
    8    3.48600058   -1.32131900    0.47247777   -488.30891504  -23.77982121  141.42324721      0.00000000    0.00000000    0.00000000
    1    4.37137528   -1.00141393    0.13522788     19.25829090  -43.21445610   -7.09679346      0.00000000    0.00000000    0.00000000
    1    2.52624160   -1.13344127    0.26383413     13.50230044   -8.45541774    3.31644131      0.00000000    0.00000000    0.00000000
    8   -6.91069395   -2.61618165    3.88563712      2.47596749  -39.47546453   16.74399756      0.00000000    0.00000000    0.00000000
    1   -7.40429651   -3.36604290    3.44514705     -6.07695407    1.53346207   -4.29006131      0.00000000    0.00000000    0.00000000
    1   -6.17248128   -2.53636227    4.55544143      7.43736114   -3.40539435   -6.68167658      0.00000000    0.00000000    0.00000000
    8    5.47503860    6.24846119   -8.78522570     -7.82724489  -18.04328132  -13.69048705      0.00000000    0.00000000    0.00000000
    1    5.70184260    5.54844917   -8.10809272     -2.08529936    6.23299551    3.18758972      0.00000000    0.00000000    0.00000000
    1    5.04060749    6.26411060    8.31422330      0.88896825    5.92966269   -3.26208656      0.00000000    0.00000000    0.00000000
    8   -8.10043201   -6.74843863   -8.72968892     -2.56263205   -0.39665420   -9.31598811      0.00000000    0.00000000    0.00000000
    1   -7.75916100   -6.06911464   -8.08005792      4.54977563    1.84379860    4.74548478      0.00000000    0.00000000    0.00000000
    1   -8.99479464   -7.01314080    8.90973610     -4.39721078    2.05929065   -3.06325394      0.00000000    0.00000000    0.00000000
    8    2.62059534   -5.73581888   -6.75708376     15.53924616   -8.75476489    1.06018495      0.00000000    0.00000000    0.00000000
    1    3.04021122   -5.08318984   -7.38792780      3.73049178    1.80596856   -0.97216424      0.00000000    0.00000000    0.00000000
    1    2.92009047   -6.25981686   -5.95977779     -3.33460949    5.35633444   -7.36500399      0.00000000    0.00000000    0.00000000
    8    1.69576473    3.62464109    7.97613096    499.53143107 -125.32833423  -10.44096174      0.00000000    0.00000000    0.00000000
    1    1.37933206    2.68134493    7.87598544     -0.79910259   -3.75742059   -7.23974697      0.00000000    0.00000000    0.00000000
    1    1.26451341    4.52313798    8.05793347    -20.03962143   -0.14286333    6.83743830      0.00000000    0.00000000    0.00000000
    8   -8.70910210    3.83998106    1.00407662     41.27659161  -42.33209264   15.31508181      0.00000000    0.00000000    0.00000000
    1   -8.74018711    3.63869306    0.02505462     -5.52454021    8.87132798    8.46097243      0.00000000    0.00000000    0.00000000
    1    8.64811391    4.18420528    1.68840361     -7.22091611    7.69935755    1.15920988      0.00000000    0.00000000    0.00000000
    8   -5.52067097    1.01972956   -0.94791776    245.69293230  211.16854976 -502.41325687      0.00000000    0.00000000    0.00000000
    1   -4.86804600    1.18589875   -0.20870554     -3.16615840   22.58383534   -7.76565156      0.00000000    0.00000000    0.00000000
    1   -5.88040031    0.21659323   -1.42281914    -21.38399395  -47.66795209    4.31294762      0.00000000    0.00000000    0.00000000
    8    8.08961740   -0.99117107   -7.90706333    -44.58450833 -486.96438717   68.52439588      0.00000000    0.00000000    0.00000000
    1    7.52158220   -0.20899923   -7.65111328    -23.74772671    5.91854810   30.69254781      0.00000000    0.00000000    0.00000000
    1   -9.07885860   -1.13098113   -8.44463880     -3.97568115  -28.57140760   24.18248054      0.00000000    0.00000000    0.00000000
    8    0.32267531    4.13415802    4.74867095     66.91274334  -12.46183530   13.42401961      0.00000000    0.00000000    0.00000000
    1    0.29126787    4.86302658    4.06476263      8.19279159   19.93028994    7.56216661      0.00000000    0.00000000    0.00000000
    1    0.29623258    4.08291339    5.74698983     -6.18098807    2.15711962   16.04628086      0.00000000    0.00000000    0.00000000
    8    1.69885149    8.04700831   -1.79528626     22.67878225 -102.34504046  -15.74150427      0.00000000    0.00000000    0.00000000
    1    2.53255762    8.59839313   -1.76571134      3.07943784    7.31064452   -1.48993372      0.00000000    0.00000000    0.00000000
    1    0.74625550    8.19705252   -2.05988815     -1.92876996   -1.28331836   -6.72628164      0.00000000    0.00000000    0.00000000
    8   -2.63451116   -8.02720573   -0.51957158      6.95045300    0.15539102  -61.22934178      0.00000000    0.00000000    0.00000000
    1   -2.73543657   -7.20495583   -1.07964784     -9.54369101    5.91851510    1.99041939      0.00000000    0.00000000    0.00000000
    1   -3.00617963   -8.95548054   -0.53114944      1.92299795   -7.59432081   -1.22136923      0.00000000    0.00000000    0.00000000
    8    5.88948063   -8.24377133   -8.15919404     16.96040812   -2.14972583   10.98253929      0.00000000    0.00000000    0.00000000
    1    6.55366763   -7.96948535   -7.46378704     -5.27093723    2.14788257    1.34108458      0.00000000    0.00000000    0.00000000
    1    5.78511209    8.98806367   -8.79085508     -4.60828340   -3.68974350    1.15165691      0.00000000    0.00000000    0.00000000
    8   -7.71483138   -0.25799689    3.42481778    248.92761496 -181.63693671  188.78976069      0.00000000    0.00000000    0.00000000
    1   -8.36100313   -0.78756916    3.97434599      4.57106129   10.21496099   -5.45440518      0.00000000    0.00000000    0.00000000
    1   -6.87633748   -0.45145591    2.91543789     -9.45254483    3.61736831    4.60387580      0.00000000    0.00000000    0.00000000
    8   -8.39449548   -3.11199545   -0.35338957    195.10293537  -27.05405870 -135.59158855      0.00000000    0.00000000    0.00000000
    1    8.64629749   -3.36541258   -0.47856822    -16.62306850    7.45240082    7.89280345      0.00000000    0.00000000    0.00000000
    1   -7.90006740   -2.30665248   -0.02638662     -7.15902273  -67.64105811  -21.40298274      0.00000000    0.00000000    0.00000000
    8    1.28939561   -0.07829915    5.93862844    317.57706984 -300.22408035  335.62518896      0.00000000    0.00000000    0.00000000
    1    1.89625123   -0.11300157    5.14459469     36.49502027   16.06166520  -26.29988417      0.00000000    0.00000000    0.00000000
    1    0.34405693    0.19915095    6.10986315     -6.04353836   35.46542041   32.80695894      0.00000000    0.00000000    0.00000000
    8    6.80489646   -2.87800337    3.71702682     -1.34052611   -4.78292950    5.81560123      0.00000000    0.00000000    0.00000000
    1    6.64728668   -3.86346939    3.65390758     -5.69019531   -7.18007276    1.32954452      0.00000000    0.00000000    0.00000000
    1    7.28949224   -2.26562641    4.34162803      2.18179588    1.60990775   -4.04864724      0.00000000    0.00000000    0.00000000
    8    7.28986353   -2.61704402   -2.75442714      6.60875390   -8.47220210   -1.80074690      0.00000000    0.00000000    0.00000000
    1    6.53208664   -3.15407893   -3.12501449     -1.74006694   -4.12580854    3.96190878      0.00000000    0.00000000    0.00000000
    1    8.23746263   -2.43410802   -3.01626179     -0.87060066   -0.71779674   -5.73341503      0.00000000    0.00000000    0.00000000
    8   -4.13029008   -3.12030383    2.67498673    -12.97007301   -6.81844707   -1.34521475      0.00000000    0.00000000    0.00000000
    1   -4.85267014   -3.78723071    2.49239057      6.94119694   -1.48074975   -3.87252445      0.00000000    0.00000000    0.00000000
    1   -4.08263800   -2.13086088    2.81173408      1.52732008    1.04618045  -11.82524770      0.00000000    0.00000000    0.00000000
    8    5.04913287    7.53113215    4.86275779     -5.01109318    2.49537578    5.39192579      0.00000000    0.00000000    0.00000000
    1    4.51761372    7.10625738    4.12999877      3.25384807    1.40985228    1.88850473      0.00000000    0.00000000    0.00000000
    1    5.03360004    7.51919687    5.86254879     -2.61470609    7.03823259   -5.98595274      0.00000000    0.00000000    0.00000000
    8    6.92343939    3.09545553   -7.88562224     -6.05583377   -5.98466637   13.63690053      0.00000000    0.00000000    0.00000000
    1    7.27564435    2.59056938   -8.67366316      2.50787470    4.50357031    1.03270857      0.00000000    0.00000000    0.00000000
    1    6.30385334    2.90096971   -7.12519123      3.91187420    1.13737702    0.47336354      0.00000000    0.00000000    0.00000000
    8   -1.01189770   -8.55987412   -5.76815347   -104.78848775  -32.12614922   50.58554202      0.00000000    0.00000000    0.00000000
    1   -0.12432554   -8.93185088   -5.49646268      9.33653540  -14.82723026   10.22512756      0.00000000    0.00000000    0.00000000
    1   -1.96808661   -8.83517633   -5.66876819      0.15516482   -1.02943964   -1.61754152      0.00000000    0.00000000    0.00000000
    8  -17.35859643  -23.04422320   -0.00309704   -105.82794129  123.16920945  -66.10379532      0.00000000    0.00000000    0.00000000
    1  -17.24273214  -24.03743105    0.00586973      0.34445722  -14.18368719   42.46750725      0.00000000    0.00000000    0.00000000
    1  -16.75195199  -22.24936865   -0.01554195    -47.95490883   11.16636866   28.27463270      0.00000000    0.00000000    0.00000000
    8   -6.32218657    8.26146635   -3.36257822    -12.57109185  -12.79675774  -20.02103473      0.00000000    0.00000000    0.00000000
    1   -7.14878974    8.66599503   -2.97136226      5.96292064    7.86875225    3.43429183      0.00000000    0.00000000    0.00000000
    1   -6.11831126    7.54095451   -4.02534931      0.93851795    3.66289424    5.09470808      0.00000000    0.00000000    0.00000000
    8    0.36257024   -6.47853272    3.43553789    255.34574666  -35.09492118   85.18584394      0.00000000    0.00000000    0.00000000
    1    0.06262536   -5.61087699    3.83198858     -4.76936343   13.60844466   -3.11649892      0.00000000    0.00000000    0.00000000
    1    0.06016337   -7.43081078    3.47656650      0.80269857   -0.91454315    6.08694578      0.00000000    0.00000000    0.00000000
    8    8.81758317   -6.07202376   -3.46946768    -10.41300408   23.88561476  -13.60738888      0.00000000    0.00000000    0.00000000
    1    8.79210660   -5.07297376   -3.50435381     -0.83235454   -2.93479155    5.41938357      0.00000000    0.00000000    0.00000000
    1    8.26745074   -6.79119648   -3.04507277     10.27607674   -3.86628144    5.49398839      0.00000000    0.00000000    0.00000000
    8    1.08959412   -6.98550254   -3.61790364     -7.52940733   35.75934630  -49.25423796      0.00000000    0.00000000    0.00000000
    1    1.95710046   -6.96894952   -3.12078729     -4.48820534  -10.07329753   -5.42234912      0.00000000    0.00000000    0.00000000
    1    0.27159355   -7.56069116   -3.61817863      5.50048151   16.58492200  -24.39631153      0.00000000    0.00000000    0.00000000
    8           NaN           NaN           NaN      0.00000000    0.00000000    0.00000000      0.00000000    0.00000000    0.00000000
    1           NaN           NaN           NaN      0.00000000    0.00000000    0.00000000      0.00000000    0.00000000    0.00000000
    1           NaN           NaN           NaN      0.00000000    0.00000000    0.00000000      0.00000000    0.00000000    0.00000000
    8    6.26054681   -0.87194685    8.03534308     -0.91559248   20.03869627   -5.84999599      0.00000000    0.00000000    0.00000000
    1    6.30306782    0.05579635    7.66459758     -2.39388297   -7.51980573   -3.80361325      0.00000000    0.00000000    0.00000000
    1    6.74296776   -1.73318279    7.87562656      3.31713655   -8.29088574    6.06047188      0.00000000    0.00000000    0.00000000
    8    4.79118238   -7.23346397   -2.46879866     -8.58853025   -8.05591692   -8.92483988      0.00000000    0.00000000    0.00000000
    1    4.59551042   -6.29183303   -2.74267991      5.40921690   -3.19477542    6.55511848      0.00000000    0.00000000    0.00000000
    1    5.49089033   -7.91460007   -2.68426951      6.55608857    1.74425203   -0.42185620      0.00000000    0.00000000    0.00000000
    8   -0.01370183   -3.79124063    3.25293382    -10.93624911   18.99570941   75.37566144      0.00000000    0.00000000    0.00000000
    1   -0.11295973   -3.60505599    2.27546293      1.27485461  -12.47465216  -20.75525740      0.00000000    0.00000000    0.00000000
    1   -0.12672598   -3.27092521    4.09937615      7.64381432   -5.25214884   -7.54636237      0.00000000    0.00000000    0.00000000
    8    1.10315763   -5.89477361    6.98948119    285.57302479 -100.96073801   50.20051085      0.00000000    0.00000000    0.00000000
    1    1.62669403   -5.85432105    7.84050335     12.84382803   -2.26366158    8.72712574      0.00000000    0.00000000    0.00000000
    1    0.43656466   -5.31051551    6.52659371      8.92036804   27.58204536  -47.78988412      0.00000000    0.00000000    0.00000000
    8   -7.70234313    5.09260218    4.77854647     -9.84306356   -5.82912888   10.99188836      0.00000000    0.00000000    0.00000000
    1   -8.07533011    4.35187508    4.21982358      0.60031872    3.86899070    0.21298571      0.00000000    0.00000000    0.00000000
    1   -7.71219214    5.33729831    5.74807944     -0.15607187   -0.97047093   -0.45321455      0.00000000    0.00000000    0.00000000
    8    7.98004014   -4.00617146    8.80095573      5.32790375    9.85332598   -8.37208383      0.00000000    0.00000000    0.00000000
    1    8.68992615   -3.64911046    8.19388275     -0.41246130   -9.58229763    0.13398844      0.00000000    0.00000000    0.00000000
    1    7.95597856   -4.57456539   -8.37666027     -5.01839450    0.19969855    1.83161312      0.00000000    0.00000000    0.00000000
    8    1.13030551    2.40937612   -5.48584758    389.61357781  -77.53782108 -172.38913454      0.00000000    0.00000000    0.00000000
    1    1.39333747    2.66739548   -6.41547449      6.12281357    0.81194751    4.10737173      0.00000000    0.00000000    0.00000000
    1    1.23167722    1.59939417   -4.90824863      3.38798541   -6.79572997   -1.01105728      0.00000000    0.00000000    0.00000000
    8   -6.42107736    1.98855613    4.70388322     18.91509135   10.25556532   -6.63567501      0.00000000    0.00000000    0.00000000
    1   -6.72800266    2.37795986    5.57228923     -3.37881237    2.93553585   -5.08812401      0.00000000    0.00000000    0.00000000
    1   -6.74775999    1.99162447    3.75877109    -12.53377803   -3.98541655    3.76866767      0.00000000    0.00000000    0.00000000
    8    0.87544681   -7.87799578   -6.80618832    125.65129136   21.56404276  -68.13373253      0.00000000    0.00000000    0.00000000
    1    1.15669145   -7.86976137   -7.76577171     14.68383932    4.92081013    5.84739606      0.00000000    0.00000000    0.00000000
    1    0.03611569   -8.08705856   -6.30440817    -45.10873181   13.34690335    1.08520439      0.00000000    0.00000000    0.00000000
    8    0.76711979    2.63760036   -1.94759880     42.07456470    1.51533238  -27.37129091      0.00000000    0.00000000    0.00000000
    1    1.58168355    2.93956242   -1.45235045      5.64161276    3.99505776   -4.91223326      0.00000000    0.00000000    0.00000000
    1    0.36591209    1.75821933   -2.20389518     -1.70696788    8.35198344    4.59256237      0.00000000    0.00000000    0.00000000
    8    6.61969935    5.99781858   -2.90650572     30.21975679   -2.02227645   -8.49761054      0.00000000    0.00000000    0.00000000
    1    7.40795606    5.38536824   -2.96585798     -4.50496573    7.05085516    3.76425965      0.00000000    0.00000000    0.00000000
    1    6.46190583    6.94074362   -2.61331757     -7.47973657   -2.52424380   -1.86957368      0.00000000    0.00000000    0.00000000
    8   -6.70735903   -2.77407846   -4.32416531    -12.88788396   -2.99510563   -8.74119557      0.00000000    0.00000000    0.00000000
    1   -7.62861409   -2.77763426   -4.71306618      8.40903661   -0.60143059    2.11024628      0.00000000    0.00000000    0.00000000
    1   -5.89809590   -2.19119567   -4.39701647      3.40673833    9.68521406    2.36875738      0.00000000    0.00000000    0.00000000
    8   -5.22643383   -6.91213639   -7.43449573     -4.26056998   -1.96891476   -1.40910597      0.00000000    0.00000000    0.00000000
    1   -5.51554283   -7.61225537   -6.78164371      2.82929731    2.49268688    3.52266735      0.00000000    0.00000000    0.00000000
    1   -4.55434782   -6.17175541   -7.44463276     -0.95802458   -2.44574176    6.23139285      0.00000000    0.00000000    0.00000000
    8   -4.57202061    0.48505500   -5.70389802     18.77143239    1.27321822   28.15800700      0.00000000    0.00000000    0.00000000
    1   -3.67120371    0.05808582   -5.62520493     -1.57418554   14.74277006    1.39586274      0.00000000    0.00000000    0.00000000
    1   -4.92332641    1.42022308   -5.74873814      5.22720182    7.33087685    5.10621454      0.00000000    0.00000000    0.00000000
    8    6.75948237    0.26615201    3.07008323    -70.89282207  -36.88092610   38.30427040      0.00000000    0.00000000    0.00000000
    1    6.66907581    0.65963670    2.15522667      5.50333559    1.73868465    4.37196236      0.00000000    0.00000000    0.00000000
    1    6.20368984    0.24248474    3.90104719      2.36895821   -0.11813256   -6.64901328      0.00000000    0.00000000    0.00000000
    8    5.08764372   -6.20313410    1.77829728    140.27948724   42.80514125  168.98107284      0.00000000    0.00000000    0.00000000
    1    4.24087063   -6.73295989    1.82549301     -8.73082421    6.36493185  -11.82996344      0.00000000    0.00000000    0.00000000
    1    5.32747091   -5.23417518    1.71856686    -12.86632270   -5.17104257    4.30606574      0.00000000    0.00000000    0.00000000
    8   -9.04804696    0.84335953    2.18902019   -197.44614946  222.04093377 -247.09975909      0.00000000    0.00000000    0.00000000
    1    8.48856471    1.71647516    2.34041027      2.54382346    5.48321322    7.69073160      0.00000000    0.00000000    0.00000000
    1   -8.83044117    0.27228764    1.39750805     17.48234176   -5.34708513   12.21963691      0.00000000    0.00000000    0.00000000
    8   -2.44081419   -5.46890717   -5.58916608    -19.54105428    0.50749326    3.62878340      0.00000000    0.00000000    0.00000000
    1   -2.29237300   -6.20683731   -4.93084228      6.65181770    1.73598741   -0.55274378      0.00000000    0.00000000    0.00000000
    1   -2.12003850   -5.25220500   -6.51118015     14.32415519   -3.05290121   -4.29861357      0.00000000    0.00000000    0.00000000
    8   -2.16555889    3.64045595    6.40510428    -20.62893180  -16.18888398   -5.11179568      0.00000000    0.00000000    0.00000000
    1   -2.24373711    4.62951798    6.28015765     -3.47869409   -1.26010272  -11.25910034      0.00000000    0.00000000    0.00000000
    1   -2.63847459    2.94402467    6.94482817    -10.46212638    0.27693082   -3.95992304      0.00000000    0.00000000    0.00000000
    8    0.48329856    2.21264267    2.61638246    232.62176077  534.29643496  492.12700760      0.00000000    0.00000000    0.00000000
    1    1.17001029    2.12192227    3.33760566     17.29385083   -2.55618517    6.00016422      0.00000000    0.00000000    0.00000000
    1    0.07644262    2.96709097    2.10136485      9.01852457   -3.09939929   -1.95134847      0.00000000    0.00000000    0.00000000
    8   -8.51743375    4.00298475   -7.45665250     14.83961344    3.23035277    9.10906830      0.00000000    0.00000000    0.00000000
    1   -7.93710382    4.00181982   -6.64229245     -1.43132288   -0.07437717   -4.60195586      0.00000000    0.00000000    0.00000000
    1   -8.36913367    4.00397466   -8.44557748      0.29930438    2.38569915   -2.42082272      0.00000000    0.00000000    0.00000000
    8   -8.98791961    0.49252056    5.59319957     -6.66125124  416.93415106  -92.11077585      0.00000000    0.00000000    0.00000000
    1    8.18123848    0.18279910    5.13088092      2.84158954    1.00039899  -15.97277228      0.00000000    0.00000000    0.00000000
    1   -8.40375747    0.14970675    6.32886255     10.59244679   14.16463745  -29.48873808      0.00000000    0.00000000    0.00000000
    8   -2.67332082    4.74007419    0.97440948    -40.45329092 -441.81385020  211.86515999      0.00000000    0.00000000    0.00000000
    1   -2.72593544    4.40027826    0.03540049      5.60180359  -11.23595372    1.06313271      0.00000000    0.00000000    0.00000000
    1   -3.31783512    4.87897808    1.72625629    -14.44966895    8.10443823   17.08509127      0.00000000    0.00000000    0.00000000
    8    0.07560641   -4.91885631   -1.45536979    134.52329616  -39.18404239 -161.04663007      0.00000000    0.00000000    0.00000000
    1    0.03019376   -5.22270444   -0.50375001    102.33813459   52.19402098  125.11815913      0.00000000    0.00000000    0.00000000
    1    0.80219560   -4.71733812   -2.11219889     -4.36541543   10.95702204  -23.53094781      0.00000000    0.00000000    0.00000000
    8   -3.32831944    2.56167945    4.02915954    -19.66396770  -32.30165690  -14.18623983      0.00000000    0.00000000    0.00000000
    1   -4.08297737    2.52188772    3.37427445     -4.04650989   -1.43352390    7.06541134      0.00000000    0.00000000    0.00000000
    1   -2.57249656    1.96240927    4.29292749    -10.18105790   10.12041566    3.64282619      0.00000000    0.00000000    0.00000000
    8   -0.80837750    6.71527456    5.17578441   -100.77343992 -118.58509572   12.92075797      0.00000000    0.00000000    0.00000000
    1   -0.23216560    6.45830155    5.95161448     -0.07942318    0.67561832    2.71320468      0.00000000    0.00000000    0.00000000
    1   -1.75511755    7.01162734    5.04998226     -8.76661372    6.27316265    1.29552112      0.00000000    0.00000000    0.00000000
    8   -3.58148284   -2.90800366    5.40482608     -2.66968997   20.89371324   14.93267165      0.00000000    0.00000000    0.00000000
    1   -3.71363752   -3.84145975    5.73823595     -3.70170794   -7.84608824    3.16922363      0.00000000    0.00000000    0.00000000
    1   -2.81720207   -2.26556036    5.34908925     -2.55248617  -10.15206633   -3.71117768      0.00000000    0.00000000    0.00000000
    8    1.08216308   -2.29686140    7.64937820    508.78143342 -258.89518842 -128.45398529      0.00000000    0.00000000    0.00000000
    1    1.60387406   -3.14782418    7.70976730      4.35170563    5.07891220    2.25419970      0.00000000    0.00000000    0.00000000
    1    0.11530047   -2.04270970    7.67285171      0.61507071   25.89616731   13.91149130      0.00000000    0.00000000    0.00000000
    8   -4.96448331    5.48051356    5.71608824     15.51220775    6.20147483   19.57561292      0.00000000    0.00000000    0.00000000
    1   -4.32340923    6.15784841    5.35524412     -6.02499843   -0.84377246   -1.00333011      0.00000000    0.00000000    0.00000000
    1   -4.95358439    4.49345660    5.87598453     -2.03762357   -3.91531146   -7.23222874      0.00000000    0.00000000    0.00000000
    8    1.32471603   -7.70453077   -1.30255311    297.95703957  -38.10178051 -196.80338370      0.00000000    0.00000000    0.00000000
    1    0.32706031   -7.64659711   -1.26658041     -7.66929881   12.22485056    6.92333105      0.00000000    0.00000000    0.00000000
    1    2.07991086   -7.05601027   -1.39777706      5.23090647    9.51473790    5.61261161      0.00000000    0.00000000    0.00000000
    8   -1.61547522   -5.00355497    0.03634074   -287.85033317 -251.58419884  205.53085427      0.00000000    0.00000000    0.00000000
    1   -1.82584348   -4.02621323    0.05906740      5.11049785  -14.85754539   14.34541962      0.00000000    0.00000000    0.00000000
    1   -2.14314913   -5.85229266    0.00213598     -1.96932338    0.68648061    7.68690841      0.00000000    0.00000000    0.00000000
    8   -0.61254576    5.07010631   -2.15631723   -225.91189350  -41.43326618  141.83881985      0.00000000    0.00000000    0.00000000
    1   -0.02682142    5.00026610   -1.34884277     16.99531343    0.10764290   -2.57049649      0.00000000    0.00000000    0.00000000
    1   -1.59232863    4.99750657   -2.34265902      5.04027157   -2.78758562   -1.23466308      0.00000000    0.00000000    0.00000000
    8    0.88173593   -3.37033444   -4.32717888    -10.89756029  -11.98279357   -6.80098937      0.00000000    0.00000000    0.00000000
    1    0.68144465   -4.33079913   -4.52045749      1.47257234   -0.13152277  -12.81536983      0.00000000    0.00000000    0.00000000
    1    1.69774290   -2.83594685   -4.10688334      2.06756336    8.37890754    2.46774220      0.00000000    0.00000000    0.00000000
    8    4.04207673    8.33857675    1.72437623    -14.00034264   20.09929867   17.44725989      0.00000000    0.00000000    0.00000000
    1    3.23738696    8.72306291    2.17671651     -1.62300952    3.11202998    2.02523437      0.00000000    0.00000000    0.00000000
    1    4.21084434    7.64537777    1.02369112     11.75430209   -7.29145729   -5.21103450      0.00000000    0.00000000    0.00000000
    8   -0.03542399   -2.35565635   -1.99806610     -9.91920441   35.44185052   42.41200043      0.00000000    0.00000000    0.00000000