 BEGIN_INFO
   #
   # This is a XCRYSDEN-Structure-File
   # aimed for Visualization of Fermi Surface
   #
   # Case: Tight-binding calculation
   #
   # Launch as: xcrysden --xsf HICOLM.XSF
   #
 END_INFO
 # estrutura final
CRYSTAL
PRIMVEC
      18.00000000       0.00000000       0.00000000
       0.00000000      18.00000000       0.00000000
       0.00000000       0.00000000      18.00000000
PRIMCOORD
  585    1
    8  -27.35510937   -0.23173956  -29.77678176     -4.66586209   -4.73497509    1.23080398      0.00000000    0.00000000    0.00000000
    1    1.42226366   -0.05713636   -2.93523229     11.29844640  -19.91853814  -28.17491215      0.00000000    0.00000000    0.00000000
    1   -0.37072402   -0.61599599   -2.64655145      3.63089935  -30.01773277  -36.23667111      0.00000000    0.00000000    0.00000000
    8   -5.40386738   -8.90548630    6.29378198      4.15457780   30.92900309   -2.82606829      0.00000000    0.00000000    0.00000000
    1   -4.51120921    8.84911740    5.91565032      3.85663711   -6.59533506    4.20657400      0.00000000    0.00000000    0.00000000
    1   -6.29014467   -8.62903937    5.92212494     -1.46273874  -18.06199670   -0.08889263      0.00000000    0.00000000    0.00000000
    8    3.07970836   -8.90709217    7.57449097     -1.37023508    1.11890392    2.93500069      0.00000000    0.00000000    0.00000000
    1    2.71078025    8.61260089    8.37025224      2.70101201    0.19653517    1.78676636      0.00000000    0.00000000    0.00000000
    1    2.74628945   -8.66467253    6.66339008     -5.16049127   -1.22013499   -2.43328938      0.00000000    0.00000000    0.00000000
    8    8.97179446   -5.46475641    0.18057388  -1219.81857045 1043.29611346 1405.56895622      0.00000000    0.00000000    0.00000000
    1    7.99186426   -5.30329046    0.06282179     -9.12731348  -11.01926406    0.36286768      0.00000000    0.00000000    0.00000000
    1   -8.18968703   -4.94556204    0.01544406    -15.91232883   52.74362130  -11.43428438      0.00000000    0.00000000    0.00000000
    8    2.51662751    6.41474320    5.90631543    -23.12645339  -21.86367422   -5.74129966      0.00000000    0.00000000    0.00000000
    1    2.17035280    5.80595529    5.19251825     12.32115016   18.20746073    7.53770382      0.00000000    0.00000000    0.00000000
    1    2.73186333    6.33157363    6.87935096      5.88787639    8.03659652    3.48438039      0.00000000    0.00000000    0.00000000
    8   -3.22635107    1.73663801   -2.86246630   -127.00111242  290.47360789 -156.11927082      0.00000000    0.00000000    0.00000000
    1   -2.92850457    2.64140471   -2.55794749      1.21627645   -1.20742255   -8.15592150      0.00000000    0.00000000    0.00000000
    1   -4.09343105    1.31990260   -3.13548700     -0.65304372    4.68246803   -1.40848515      0.00000000    0.00000000    0.00000000
    8   -1.88161586    7.83910811    7.66604526   -868.91141090   25.24284742 -302.61525812      0.00000000    0.00000000    0.00000000
    1   -1.47065155    8.59756556    8.17188653     16.08971846   -5.22199043    1.44981591      0.00000000    0.00000000    0.00000000
    1   -2.53353797    7.10883138    7.87037009      0.74799054   10.15598045   11.04904480      0.00000000    0.00000000    0.00000000
    8   -4.83386822    0.21327582    8.72771428   2177.29958347 1770.97552115-4012.38841657      0.00000000    0.00000000    0.00000000
    1   -5.56134298    0.05951539    8.05622801     25.72234655   12.71628618  -11.66627932      0.00000000    0.00000000    0.00000000
    1   -3.84617273    0.03879675    8.75957139     -9.18183809   10.16094626   -6.99646950      0.00000000    0.00000000    0.00000000
    8    2.65844047    4.11544675   -0.00776638     11.33979909  -32.18248118  -18.57055828      0.00000000    0.00000000    0.00000000
    1    1.81658674    3.57570592   -0.00578953     -6.30801482    8.81756714    6.43735092      0.00000000    0.00000000    0.00000000
    1    3.63868436    3.91760758   -0.01203535     -7.70538280   15.22317462   13.58920649      0.00000000    0.00000000    0.00000000
    8   -5.18370781    2.27538142    0.26390323   1540.24404880 3268.70977971 3640.72548198      0.00000000    0.00000000    0.00000000
    1   -5.85301412    1.55289837    0.43816052    -23.17604120    7.90646855  -22.79065519      0.00000000    0.00000000    0.00000000
    1   -4.21331538    2.31310568    0.02530901      5.01266025    8.58403321   -8.33662392      0.00000000    0.00000000    0.00000000
    8    2.42243062   -1.30879479    0.20493783  -4866.60936439  367.34262493 1575.11128425      0.00000000    0.00000000    0.00000000
    1    4.33889590   -0.97965117    0.14407428   -136.32280483 -153.35683289 -147.79636450      0.00000000    0.00000000    0.00000000
    1    2.49557356   -1.10878985    0.27362514     36.19961083  -14.78124909   -0.19948667      0.00000000    0.00000000    0.00000000
    8   -6.91142681   -2.61009799    3.88481736    -52.14528865   43.44436384  -33.35925322      0.00000000    0.00000000    0.00000000
    1   -7.40469164   -3.36041565    3.44463943      1.28027367  -24.98505185    1.16305831      0.00000000    0.00000000    0.00000000
    1   -6.17314638   -2.53091679    4.55468968     26.14140021   -8.49242503    9.10396040      0.00000000    0.00000000    0.00000000
    8    5.47631051    6.24974546   -8.78332615     -4.95290472  -19.39292265   -9.45152260      0.00000000    0.00000000    0.00000000
    1    5.70287440    5.54926104   -8.10654797     -3.73310911    7.38264463    2.15833110      0.00000000    0.00000000    0.00000000
    1    5.04178527    6.26476534    8.31611624      2.90250825    8.51294628   -3.12154938      0.00000000    0.00000000    0.00000000
    8   -8.09947610   -6.74854780   -8.72893936     38.43803627   25.28267514  -21.56922740      0.00000000    0.00000000    0.00000000
    1   -7.75879314   -6.06899637   -8.07918417    -10.99584601   -4.16473494   16.94576668      0.00000000    0.00000000    0.00000000
    1   -8.99415357   -7.01281405    8.91083154    -11.58642877   -0.42286340   -0.59550314      0.00000000    0.00000000    0.00000000
    8    2.61809828   -5.73564471   -6.75614795      4.23454839   13.89766207   11.40529080      0.00000000    0.00000000    0.00000000
    1    3.03828246   -5.08304550   -7.38670202     10.07576520   -9.90883755   -6.48317158      0.00000000    0.00000000    0.00000000
    1    2.91818785   -6.25941256   -5.95886696      1.39117269   -4.49525212   -8.61971012      0.00000000    0.00000000    0.00000000
    8    1.53059432    3.66645619    7.97804379   4961.64814759-1184.36844416  -51.81938208      0.00000000    0.00000000    0.00000000
    1    1.23806475    2.71759653    7.87772468      2.01452267    2.13986986   -1.31369506      0.00000000    0.00000000    0.00000000
    1    1.12325592    4.55902512    8.05963723    -31.04756445   -2.80607935   11.88798940      0.00000000    0.00000000    0.00000000
    8   -8.71221698    3.84299069    1.00107723      8.73102630  -65.98960453   -8.20833148      0.00000000    0.00000000    0.00000000
    1   -8.74391103    3.64188294    0.02200275      5.25717175   24.32027650   10.75283921      0.00000000    0.00000000    0.00000000
    1    8.64452421    4.18727535    1.68498447     -4.55024208   20.49490227    2.03322831      0.00000000    0.00000000    0.00000000
    8   -5.59238542    0.96990798   -0.80384056   1977.06493211 1708.38503623-2789.11771777      0.00000000    0.00000000    0.00000000
    1   -4.90773239    1.19214275   -0.05875898      2.33014013   49.42434386   -7.06685453      0.00000000    0.00000000    0.00000000
    1   -5.91982525    0.22294431   -1.27263008    -38.07336163  -74.90946322   20.32819758      0.00000000    0.00000000    0.00000000
    8    8.14696166   -0.85012130   -7.96173764  -2151.27550482-3366.09148289 1716.41921460      0.00000000    0.00000000    0.00000000
    1    7.57820777   -0.06923315   -7.70523260      1.82591466    6.45207404   10.19520653      0.00000000    0.00000000    0.00000000
    1   -9.02253999   -0.99101363   -8.49858411      0.11460631  -36.20813214   11.98183055      0.00000000    0.00000000    0.00000000
    8 -115.38086519   -0.25371488  -71.11935850      0.00000000    0.00000000    0.00000000      0.00000000    0.00000000    0.00000000
    1    0.63301633    4.46752743    4.29734459     -9.08025040    3.63818734    5.97659299      0.00000000    0.00000000    0.00000000
    1    0.63793456    3.68954613    5.97497889     -4.33216564    8.25705076   13.75586216      0.00000000    0.00000000    0.00000000
    8    1.69527664    8.06047155   -1.79192176      3.84931857    5.66324598   14.81711535      0.00000000    0.00000000    0.00000000
    1    2.52869041    8.61237758   -1.76257068      8.62728440    3.49961309   -5.02640974      0.00000000    0.00000000    0.00000000
    1    0.74278231    8.21112507   -2.05668268     -5.88980499   -4.08783955   -7.67058545      0.00000000    0.00000000    0.00000000
    8   -2.63461560   -8.02715253   -0.51078816    -25.33849196   18.80625140  -58.52704201      0.00000000    0.00000000    0.00000000
    1   -2.73594550   -7.20518350   -1.07126524     13.75219872   -2.78311466   -0.03707140      0.00000000    0.00000000    0.00000000
    1   -3.00662885   -8.95532205   -0.52288806     18.18926345  -15.63399713   -2.92191423      0.00000000    0.00000000    0.00000000
    8    5.88824699   -8.24313514   -8.16111067     20.07795547    1.71837060   13.31389305      0.00000000    0.00000000    0.00000000
    1    6.55280026   -7.96936343   -7.46579884     -5.48108047    0.07591350   -0.71124030      0.00000000    0.00000000    0.00000000
    1    5.78441398    8.98841552   -8.79257430     -4.16393199   -7.14108508   -0.12188082      0.00000000    0.00000000    0.00000000
    8  -23.13715161  -13.44679921  -10.80592246     11.81294214   -1.87192061    2.23836705      0.00000000    0.00000000    0.00000000
    1   -8.36480596   -1.78482301    3.99934266     23.34472876    1.42792177    5.59655535      0.00000000    0.00000000    0.00000000
    1   -6.88358557   -1.44957027    2.94281418      2.28808420  -18.14387684   21.21259314      0.00000000    0.00000000    0.00000000
    8   -8.42181102   -3.09795816   -0.32948125    292.94326665  -47.13520596 -192.48582310      0.00000000    0.00000000    0.00000000
    1    8.61876824   -3.35081430   -0.45444833    -17.59078926    1.30167288    4.02703935      0.00000000    0.00000000    0.00000000
    1   -7.92791697   -2.29228837   -0.00236830    -25.52141886  -75.46159309  -18.53695560      0.00000000    0.00000000    0.00000000
    8    1.20358815    0.00080738    5.84011126   1354.19183081-1696.21597431 2113.39381899      0.00000000    0.00000000    0.00000000
    1    1.80998614   -0.03375758    5.04601238     47.27358043   20.29884198 -102.98739740      0.00000000    0.00000000    0.00000000
    1    0.25813647    0.27832615    6.01106444    -15.31610330   54.14748196   70.34685349      0.00000000    0.00000000    0.00000000
    8    6.80538905   -2.87623376    3.71639457     24.25035139   31.07208871  -11.99685851      0.00000000    0.00000000    0.00000000
    1    6.64811061   -3.86182904    3.65380651    -16.37035292  -19.51766090    6.78615642      0.00000000    0.00000000    0.00000000
    1    7.29017462   -2.26433906    4.34137580    -10.39946786  -18.69381143   11.63929026      0.00000000    0.00000000    0.00000000
    8    7.28921005   -2.61506606   -2.75345435      9.88830130    3.20389851   19.83728798      0.00000000    0.00000000    0.00000000
    1    6.53177420   -3.15230877   -3.12454222     -2.55239451   -9.54466241   -5.43485933      0.00000000    0.00000000    0.00000000
    1    8.23677386   -2.43249617   -3.01581415     -1.98677385   -4.28690044  -11.35062455      0.00000000    0.00000000    0.00000000
    8   -4.12954526   -3.11933676    2.67710926    -38.91417753  -12.45246073  -11.18001250      0.00000000    0.00000000    0.00000000
    1   -4.85238035   -3.78582067    2.49451365     17.70518204   -1.59714253    7.41078244      0.00000000    0.00000000    0.00000000
    1   -4.08251813   -2.12981613    2.81378557     17.67341999    2.49987769   -6.91583121      0.00000000    0.00000000    0.00000000
    8    5.05008965    7.52974001    4.86252015     -3.58925713   -7.09938305    1.11420371      0.00000000    0.00000000    0.00000000
    1    4.51818621    7.10456001    4.13016836      4.06142898    7.30095059    3.22707637      0.00000000    0.00000000    0.00000000
    1    5.03405846    7.51740844    5.86233602     -2.67403836    9.50667380   -3.35763083      0.00000000    0.00000000    0.00000000
    8    6.92335768    3.09582351   -7.88792896     -0.98436258  -13.26297393    9.29713762      0.00000000    0.00000000    0.00000000
    1    7.27523968    2.59040951   -8.67582096      0.14760239    8.05785588    4.06080198      0.00000000    0.00000000    0.00000000
    1    6.30366292    2.90074082   -7.12769138      1.99087993    1.28462071   -3.00037261      0.00000000    0.00000000    0.00000000
    8   -0.99664790   -8.55197535   -5.77766839   -142.19094471  -34.23722350   70.99225555      0.00000000    0.00000000    0.00000000
    1   -0.10933460   -8.92446535   -5.50569694     10.85323264  -21.16370312   10.28970699      0.00000000    0.00000000    0.00000000
    1   -1.95268852   -8.82781185   -5.67796491      2.01365706   -8.55614041   -2.33335158      0.00000000    0.00000000    0.00000000
    8  -12.21956517  -16.10617813    0.02137308   1166.01381501  626.13823423  619.38837390      0.00000000    0.00000000    0.00000000
    1   -6.46756588   -9.16969636    0.02580290    -33.69270700   58.86552056   -7.68840043      0.00000000    0.00000000    0.00000000
    1   -5.97859673   -7.38599087    0.00441808    -13.25653503  -26.20252066   -4.28148567      0.00000000    0.00000000    0.00000000
    8   -6.32123914    8.26185159   -3.36105214    -15.33337122   -6.62954657   -1.75451127      0.00000000    0.00000000    0.00000000
    1   -7.14823050    8.66600152   -2.97017385      4.82239534    4.94652490   -6.66071118      0.00000000    0.00000000    0.00000000
    1   -6.11797932    7.54120872   -4.02392794      4.47243895    0.44947760    0.46125195      0.00000000    0.00000000    0.00000000
    8    0.31697886   -6.47476172    3.41887642    448.98671278  -59.95330288  167.13532875      0.00000000    0.00000000    0.00000000
    1    0.01655324   -5.60737409    3.81564115      0.57766293   16.65761339   -1.78614857      0.00000000    0.00000000    0.00000000
    1    0.01409173   -7.42690627    3.46029896      5.18522304    4.40138854    9.33357101      0.00000000    0.00000000    0.00000000
    8    8.81825008   -6.07451529   -3.46930915      2.32365593   26.56217614   -3.26146211      0.00000000    0.00000000    0.00000000
    1    8.79224964   -5.07543006   -3.50383203     -5.28059073   -7.31052661   -0.63724368      0.00000000    0.00000000    0.00000000
    1    8.26771033   -6.79327397   -3.04465220      2.92849278   -4.63313099    2.49333218      0.00000000    0.00000000    0.00000000
    8    1.09017277   -6.99127068   -3.60714587     -5.70329268   23.93836017   -6.22694588      0.00000000    0.00000000    0.00000000
    1    1.95753297   -6.97523641   -3.10968159      4.21213634  -10.98575929    1.49821535      0.00000000    0.00000000    0.00000000
    1    0.27239775   -7.56684539   -3.60696496      6.23377383   12.74214168  -21.48471532      0.00000000    0.00000000    0.00000000
    8  -37.15129671  -17.44575233  -31.55475427     -5.02638281    5.33216398    1.81511827      0.00000000    0.00000000    0.00000000
    1   -6.13744919   -7.05471903   -9.01072823     -1.13105943   -1.74503945   15.80090369      0.00000000    0.00000000    0.00000000
    1   -6.83541436   -5.51756360   -9.76596328      0.89523722  -38.74328608   17.79484956      0.00000000    0.00000000    0.00000000
    8    6.26036582   -0.87255089    8.03622442      7.84543910   15.72104147  -21.71941161      0.00000000    0.00000000    0.00000000
    1    6.30335766    0.05504895    7.66507551     -6.96976826   -5.55150140    6.65498912      0.00000000    0.00000000    0.00000000
    1    6.74316086   -1.73353573    7.87605846     -0.93193256   -7.70387450   10.64791820      0.00000000    0.00000000    0.00000000
    8    4.79040438   -7.23234777   -2.46816851     -5.79167972   -2.69750384  -10.20479837      0.00000000    0.00000000    0.00000000
    1    4.59523673   -6.29068711   -2.74243721      5.08960091   -4.33170916    8.97223468      0.00000000    0.00000000    0.00000000
    1    5.49041936   -7.91309547   -2.68404028      4.38221686    0.36199532   -0.36815549      0.00000000    0.00000000    0.00000000
    8   -0.01338856   -3.79165093    3.24694423    -14.64143984   21.31114591   72.14552592      0.00000000    0.00000000    0.00000000
    1   -0.11281787   -3.60486080    2.26956734      4.43379789  -12.74658302  -19.96484988      0.00000000    0.00000000    0.00000000
    1   -0.12658077   -3.27080269    4.09307769     10.71292683   -8.64943910   -8.07028741      0.00000000    0.00000000    0.00000000
    8    1.04112349   -5.87762873    6.98533300    701.86984330 -252.38878076  125.04854655      0.00000000    0.00000000    0.00000000
    1    1.56442307   -5.83661675    7.83652339     14.53048762   -5.77698590    5.73077251      0.00000000    0.00000000    0.00000000
    1    0.37455904   -5.29293167    6.52290151     -4.54784032   36.04988303  -61.72615360      0.00000000    0.00000000    0.00000000
    8   -7.77295549    4.94836067    4.70280177  -2793.25815272-6020.33387938-3025.32814938      0.00000000    0.00000000    0.00000000
    1   -8.14593375    4.20794192    4.14488259     15.86321201   26.80115220   20.15729556      0.00000000    0.00000000    0.00000000
    1   -7.78287705    5.19314668    5.67279967     -3.74337336    0.65875502    4.88309548      0.00000000    0.00000000    0.00000000
    8    7.97956124   -4.00605179    8.80176765      5.02196740   16.09873258  -11.15184226      0.00000000    0.00000000    0.00000000
    1    8.68991891   -3.64926422    8.19502624     -5.04958376   -8.78111443    4.68299300      0.00000000    0.00000000    0.00000000
    1    7.95613309   -4.57451521   -8.37583213    -10.22307507   -2.83819318    5.65643625      0.00000000    0.00000000    0.00000000
    8    1.02020188    2.43320194   -5.43937759   2056.76801915 -454.48732178 -861.23765921      0.00000000    0.00000000    0.00000000
    1    1.28365044    2.69063159   -6.36918063      4.70806003   10.98823904    3.29737889      0.00000000    0.00000000    0.00000000
    1    1.12202531    1.62286691   -4.86228765      3.29144443    8.85239627   -3.19809790      0.00000000    0.00000000    0.00000000
    8   -6.42092433    1.98707348    4.70521283    -12.39895784  -26.72071670  -36.06165020      0.00000000    0.00000000    0.00000000
    1   -6.72835870    2.37675636    5.57336085      8.04630425   18.74324300    8.43837556      0.00000000    0.00000000    0.00000000
    1   -6.74811166    1.99050613    3.76024310      4.37127334   17.06872234   15.83740934      0.00000000    0.00000000    0.00000000
    8    0.86098832   -7.88420157   -6.79612328    157.82943462   43.34818482  -90.76252799      0.00000000    0.00000000    0.00000000
    1    1.14166122   -7.87615466   -7.75591450     15.45207112   -0.33963891    7.51623424      0.00000000    0.00000000    0.00000000
    1    0.02133051   -8.09340297   -6.29487494    -48.89934398    4.95323081   -0.80184270      0.00000000    0.00000000    0.00000000
    8    0.76014325    2.63605789   -1.94358579     59.58146394  -21.77308136  -46.58297787      0.00000000    0.00000000    0.00000000
    1    1.57490577    2.93742742   -1.44822855     -0.33189753   12.14870461   -1.78645143      0.00000000    0.00000000    0.00000000
    1    0.35940213    1.75634611   -2.19960624     -6.91554708   27.63649889   15.20909567      0.00000000    0.00000000    0.00000000
    8    6.61686294    5.99733329   -2.90562314     43.85061006  -59.42601316   -6.70853966      0.00000000    0.00000000    0.00000000
    1    7.40552234    5.38532765   -2.96474875     -6.44146604   12.47417369   -1.98922960      0.00000000    0.00000000    0.00000000
    1    6.45967977    6.94036005   -2.61228633    -10.27477427    9.89040730   -3.73530442      0.00000000    0.00000000    0.00000000
    8   -6.70741452   -2.77509339   -4.32371582      1.52850780   11.43909936    5.20617697      0.00000000    0.00000000    0.00000000
    1   -7.62856991   -2.77812025   -4.71295618      3.48543828   -8.10512153   -4.90804130      0.00000000    0.00000000    0.00000000
    1   -5.89843323   -2.19181072   -4.39697553      6.15583806   -1.16595386   -1.35825488      0.00000000    0.00000000    0.00000000
    8   -5.22660195   -6.91192116   -7.43633271    -20.28152771   10.97996273  -28.24181536      0.00000000    0.00000000    0.00000000
    1   -5.51529353   -7.61185127   -6.78303226      5.41394545   -8.01400823   10.39114209      0.00000000    0.00000000    0.00000000
    1   -4.55431037   -6.17166817   -7.44587504      5.85355048   -4.59770826   11.05674206      0.00000000    0.00000000    0.00000000
    8   -4.57491319    0.48176097   -5.70853555    -17.94968024  -11.84464329   44.94682401      0.00000000    0.00000000    0.00000000
    1   -3.67378901    0.05535258   -5.62983150     -2.56851551   21.63936471   -3.71696285      0.00000000    0.00000000    0.00000000
    1   -4.92563491    1.41718980   -5.75333761     17.98354532   17.31468237   -5.74855702      0.00000000    0.00000000    0.00000000
    8  -49.35512820   -0.54977186  -50.92650678      0.00000000    0.00000000    0.00000000      0.00000000    0.00000000    0.00000000
    1    6.81893227    0.45930506    2.25401796    -15.56039250   -1.39773991   24.99602448      0.00000000    0.00000000    0.00000000
    1    6.35443350    0.04365498    4.04429631     -5.15028104    0.81474171    4.05096185      0.00000000    0.00000000    0.00000000
    8    5.06352697   -6.20843597    1.75195194      7.25936443   27.61237195   12.57408470      0.00000000    0.00000000    0.00000000
    1    4.21638498   -6.73774663    1.79912493     -5.11067326   -1.56575792    4.65565441      0.00000000    0.00000000    0.00000000
    1    5.30274518   -5.23929250    1.69222365    -17.34580253   -9.17916851    8.59643058      0.00000000    0.00000000    0.00000000
    8  -25.12153182  -11.65047427  -12.58990844   2771.64788255 6014.85889476 3017.25037324      0.00000000    0.00000000    0.00000000
    1    7.38130023    1.91227447    1.29202032     10.36706316   27.21869057   -6.13449322      0.00000000    0.00000000    0.00000000
    1   -9.98760590    0.47068663    0.35054968      6.55941236    7.85891533   -7.93897933      0.00000000    0.00000000    0.00000000
    8   -2.44132618   -5.46851566   -5.58869200    -15.84775592   13.64459394    6.40359530      0.00000000    0.00000000    0.00000000
    1   -2.29248769   -6.20676251   -4.93075492      9.58864188   -4.59671837   -1.46531849      0.00000000    0.00000000    0.00000000
    1   -2.12019124   -5.25234118   -6.51074473     13.80119165  -10.32015867  -10.25092439      0.00000000    0.00000000    0.00000000
    8   -2.16105144    3.64239128    6.40696957     10.85408134  -11.49635406   -6.15901812      0.00000000    0.00000000    0.00000000
    1   -2.23971893    4.63150361    6.28243502     -9.62423562    2.37387986   -3.79516513      0.00000000    0.00000000    0.00000000
    1   -2.63436935    2.94638231    6.94695874    -15.43937026    1.01891313   -2.29978983      0.00000000    0.00000000    0.00000000
    8    0.42201330    2.09012702    2.51713525    830.37160106 1792.58933369  691.69175224      0.00000000    0.00000000    0.00000000
    1    1.10884600    2.00010055    3.23826255     20.40254334  -16.22423037   -6.93574342      0.00000000    0.00000000    0.00000000
    1    0.01551921    2.84508315    2.00229453      6.20415865   -6.53397163  -15.32527398      0.00000000    0.00000000    0.00000000
    8   -8.51983711    4.00212456   -7.45690565      4.43417265   -6.86516490   30.11112524      0.00000000    0.00000000    0.00000000
    1   -7.93896585    4.00096171   -6.64288904      3.99020052    5.17850936  -18.62872095      0.00000000    0.00000000    0.00000000
    1   -8.37090029    4.00311623   -8.44577552      8.31844662    8.52073266  -10.21157151      0.00000000    0.00000000    0.00000000
    8   -8.99184307    0.36888451    5.63772443     78.48329290 2494.07274682 -981.15254288      0.00000000    0.00000000    0.00000000
    1    8.17728105    0.05887442    5.17566668      9.88505611   -0.42072340   12.25235530      0.00000000    0.00000000    0.00000000
    1   -8.40802758    0.02579558    6.37338334     28.96151652   15.45153052  -23.58123520      0.00000000    0.00000000    0.00000000
    8   -2.65795279    4.85505302    0.91226297   -286.91895201-2038.04811531 1147.18241795      0.00000000    0.00000000    0.00000000
    1   -2.71121288    4.51500842   -0.02662886      9.40603599  -24.19362138   -0.90867482      0.00000000    0.00000000    0.00000000
    1   -3.30298319    4.99360306    1.66385259     -7.93933517    5.76849499   12.73392885      0.00000000    0.00000000    0.00000000
    8    0.03351039   -4.92277007   -1.44194159     35.80578516 -153.50879960 -550.18465759      0.00000000    0.00000000    0.00000000
    1   -0.01123458   -5.22663163   -0.49024280     10.19577518   41.17330204   36.36617651      0.00000000    0.00000000    0.00000000
    1    0.76058662   -4.72138301   -2.09833927     10.80578566    5.96746385   31.96168124      0.00000000    0.00000000    0.00000000
    8   -3.32315004    2.56554550    4.02977943      9.05850830   -3.03882050  -20.17533228      0.00000000    0.00000000    0.00000000
    1   -4.07764050    2.52517604    3.37468022     -1.73163692    0.50594186    8.23402514      0.00000000    0.00000000    0.00000000
    1   -2.56749346    1.96582087    4.29313024     -9.36899275    6.07341834    2.47090576      0.00000000    0.00000000    0.00000000
    8   -0.79045013    6.73356109    5.17247194   -147.31329248 -185.53077433   15.87514491      0.00000000    0.00000000    0.00000000
    1   -0.21470598    6.47668467    5.94872867     -0.59879093    9.35657834    6.30732319      0.00000000    0.00000000    0.00000000
    1   -1.73732182    7.02988809    5.04729531     -5.66160810    9.04068601    2.59467964      0.00000000    0.00000000    0.00000000
    8   -3.58068860   -2.90814837    5.40272790    -17.73484517   18.35745529    4.12687191      0.00000000    0.00000000    0.00000000
    1   -3.71223306   -3.84166474    5.73631987      6.15537008   -8.15034343    3.50854256      0.00000000    0.00000000    0.00000000
    1   -2.81599489   -2.26611352    5.34725858      3.32324416  -10.25631289   -3.37830868      0.00000000    0.00000000    0.00000000
    8    0.97841238   -2.24607363    7.66797247   1174.38445579 -657.10898992 -128.13707167      0.00000000    0.00000000    0.00000000
    1    1.49961090   -3.09740861    7.72841687      6.68361629   -5.41636481  -14.93686640      0.00000000    0.00000000    0.00000000
    1    0.01136705   -1.99253321    7.69151029     -6.39949216   27.06813013   -1.84578847      0.00000000    0.00000000    0.00000000
    8   -4.96579957    5.48055798    5.71453022     12.68307190    6.81597214    7.32237972      0.00000000    0.00000000    0.00000000
    1   -4.32426922    6.15745993    5.35358283     -9.02446294   -2.23287412    3.26725264      0.00000000    0.00000000    0.00000000
    1   -4.95430494    4.49343548    5.87420779     -1.51110381   -1.54747555   -3.31995048      0.00000000    0.00000000    0.00000000
    8******************************************      0.00000000    0.00000000    0.00000000      0.00000000    0.00000000    0.00000000
    1 -301.19941852 -619.99223443-6086.21330390      0.00000000    0.00000000    0.00000000      0.00000000    0.00000000    0.00000000
    1 -299.49454199 -619.41522937-6086.33830568      0.00000000    0.00000000    0.00000000      0.00000000    0.00000000    0.00000000
    8   -1.53575490   -4.94698658    0.01175508  -2128.50777856-1040.48661942 -587.77465433      0.00000000    0.00000000    0.00000000
    1   -1.74680429   -3.96975817    0.03445120     20.24117605  -13.15739346   20.72544872      0.00000000    0.00000000    0.00000000
    1   -2.06404094   -5.79543420   -0.02246870     16.08478379    1.50123151    9.87844329      0.00000000    0.00000000    0.00000000
    8   -0.57519182    5.07867610   -2.18242566   -392.75443502  -99.37187475  261.23447967      0.00000000    0.00000000    0.00000000
    1    0.01003965    5.00872151   -1.37455845     13.84521709    4.18324706   -3.11395906      0.00000000    0.00000000    0.00000000
    1   -1.55512224    5.00596243   -2.36815404      3.65104837   -2.98337491   -0.93074358      0.00000000    0.00000000    0.00000000
    8  -61.64099859  -26.48784907  -49.05647468      0.00000000    0.00000000    0.00000000      0.00000000    0.00000000    0.00000000
    1    0.80241643   -4.29194643   -4.44453429      5.54193869   -6.02723244   -3.07403482      0.00000000    0.00000000    0.00000000
    1    1.86657776   -2.80171629   -4.02744157      5.51063867   -2.14971435    8.75454104      0.00000000    0.00000000    0.00000000
    8    4.04290707    8.33674130    1.72245055     -8.42544642   10.41567014   15.81797331      0.00000000    0.00000000    0.00000000
    1    3.23781139    8.72086006    2.17446363     -0.99120143    2.19576708    3.81762256      0.00000000    0.00000000    0.00000000
    1    4.21105451    7.64341321    1.02169288      9.16219481   -1.53741415   -3.14763507      0.00000000    0.00000000    0.00000000
    8   -0.03369448   -2.36014533   -2.00097305     -9.76405535   53.86966599  -28.80787261      0.00000000    0.00000000    0.00000000