 BEGIN_INFO
   #
   # This is a XCRYSDEN-Structure-File
   # aimed for Visualization of Fermi Surface
   #
   # Case: Tight-binding calculation
   #
   # Launch as: xcrysden --xsf HICOLM.XSF
   #
 END_INFO
 # estrutura final
CRYSTAL
PRIMVEC
      19.00000000       0.00000000       0.00000000
       0.00000000      19.00000000       0.00000000
       0.00000000       0.00000000      19.00000000
PRIMCOORD
  300    1
    8    5.29889073   -6.77218737    0.93144671     29.11633410  119.88378585   51.55023275      0.00000000    0.00000000    0.00000000
    1    4.72600873   -5.96077837    0.81573171      1.59177739    1.39578273    4.45544509      0.00000000    0.00000000    0.00000000
    1    5.30537373   -7.56765537    1.53737971     -5.13094622  -11.45873015    5.49604989      0.00000000    0.00000000    0.00000000
    8    5.46326195    1.20412973   -3.41808079  -1178.77195615  118.35655011 1695.68836879      0.00000000    0.00000000    0.00000000
    1    5.84126595    0.32635273   -3.71234079     31.82250196  -75.51734917  -59.64789093      0.00000000    0.00000000    0.00000000
    1    5.82964495    2.10970573   -3.20439379     15.88312744   29.22205861  -13.98794883      0.00000000    0.00000000    0.00000000
    8    2.38641607    1.12816526   -7.63618944      0.07356329  -24.60657353  -25.08280336      0.00000000    0.00000000    0.00000000
    1    2.11506307    1.51952126   -8.51549344     -0.75875098    3.56821015    7.02512715      0.00000000    0.00000000    0.00000000
    1    3.19059707    0.65449226   -7.27717044     -0.48738196    4.11354878    5.83204248      0.00000000    0.00000000    0.00000000
    8   -3.19824402    4.07014473    5.77532176    -50.30581111  -54.98699513  193.06806659      0.00000000    0.00000000    0.00000000
    1   -2.41136502    3.50312173    6.01878276     -1.45401307    5.41641271   -2.00662898      0.00000000    0.00000000    0.00000000
    1   -4.06078602    3.93261973    5.28841976     13.89305333    1.79780176   -0.09373515      0.00000000    0.00000000    0.00000000
    8   -2.50084893   -8.01093143   -3.98972532     -0.53640830    0.22763153   -0.32196647      0.00000000    0.00000000    0.00000000
    1   -1.83030493   -7.48908343   -3.46245732     -1.00244283   -0.46853790   -2.47432820      0.00000000    0.00000000    0.00000000
    1   -3.06482893   -7.84686743   -4.79903132     -2.53257629    4.25813745   -1.62385723      0.00000000    0.00000000    0.00000000
    8    0.32840354   -3.61092223   -7.06062182   -124.60469092 -141.17851714  -33.66455066      0.00000000    0.00000000    0.00000000
    1    0.04618354   -4.20407623   -7.81460182     -0.01867169    2.18866733    0.18793520      0.00000000    0.00000000    0.00000000
    1    0.24625654   -2.63891523   -6.84057482      1.26799199    0.45970362  -11.53823392      0.00000000    0.00000000    0.00000000
    8    3.42285654   -1.49081877    7.31597250     17.06025604  -16.00845824   12.97723824      0.00000000    0.00000000    0.00000000
    1    2.96059354   -2.37696277    7.34805350      9.45792687    1.67615651   -7.62636531      0.00000000    0.00000000    0.00000000
    1    3.15561354   -0.53522377    7.44000850     -5.82694280    7.48043429   -4.98909870      0.00000000    0.00000000    0.00000000
    8   -6.43773900   -0.03313678    4.21785398      1.34349972   -0.42544161   -5.48877267      0.00000000    0.00000000    0.00000000
    1   -6.95521500    0.82017122    4.15421798      1.34097564   -4.67166801    0.49236287      0.00000000    0.00000000    0.00000000
    1   -6.50315800   -0.87589478    4.75212398      0.04957259    4.54360067    1.24674271      0.00000000    0.00000000    0.00000000
    8    0.44918840    5.18639922    2.48949261    256.60645244-1650.84392881 1788.41104236      0.00000000    0.00000000    0.00000000
    1   -0.16764160    5.90971222    2.79982461    -29.54840030    3.17000871   10.25697409      0.00000000    0.00000000    0.00000000
    1    0.37060440    4.37105722    1.91590061     17.92712110   11.24398469  -10.79242305      0.00000000    0.00000000    0.00000000
    8   -3.52995064    5.65901358   -5.21660519      5.53347116    4.24974397   -5.20350200      0.00000000    0.00000000    0.00000000
    1   -4.46640264    6.00962958   -5.20692219     -5.99491577   -1.60196257    1.32957580      0.00000000    0.00000000    0.00000000
    1   -2.62590064    6.02809758   -5.43210019     -2.46533394    0.48875760    0.32135085      0.00000000    0.00000000    0.00000000
    8   -5.10681342    0.87657908    1.40991447     87.63579374  -84.93054058   30.77946204      0.00000000    0.00000000    0.00000000
    1   -5.82496542    0.18082408    1.42209647      2.38441390    2.03017179   -2.45235497      0.00000000    0.00000000    0.00000000
    1   -4.43049842    1.22367908    2.05959647     -1.61430623   -7.26546532   -1.56238950      0.00000000    0.00000000    0.00000000
    8    0.36427302   -7.25848406   -7.36118601     -2.86206415   -2.55518265    1.74785622      0.00000000    0.00000000    0.00000000
    1   -0.01068598   -6.33146006   -7.36193201      1.88575155    0.13424216    3.11057498      0.00000000    0.00000000    0.00000000
    1   -0.01000998   -8.18577006   -7.35695201      1.15898698    0.51796088    0.71976306      0.00000000    0.00000000    0.00000000
    8   -5.01477167    1.85304890    7.11052773   -275.34698635 1452.59638101  495.68232005      0.00000000    0.00000000    0.00000000
    1   -4.07308967    1.57581390    6.91989073     -0.35669476  -11.99495261   -9.06899597      0.00000000    0.00000000    0.00000000
    1   -5.78680267    2.19399590    6.57415973      0.92550401   -0.88911920   -1.24228850      0.00000000    0.00000000    0.00000000
    8   -8.54317097   -4.22861982   -2.77767242      2.91356849   11.16369183   -2.64398416      0.00000000    0.00000000    0.00000000
    1   -9.41807897   -4.70991982   -2.83108142      1.87663393   -4.22642765   -1.21782415      0.00000000    0.00000000    0.00000000
    1   -7.63453597   -4.42667982   -2.41008342     -1.23622268    0.65741281   -0.38510620      0.00000000    0.00000000    0.00000000
    8   -3.82965418   -0.00713997   -5.97965273     -1.59757422  -10.78945785    5.77303440      0.00000000    0.00000000    0.00000000
    1   -4.80122018    0.06742303   -5.75500673     -0.92450062    5.10136229   -2.88304584      0.00000000    0.00000000    0.00000000
    1   -3.09868418    0.62737503   -6.23073273     -2.20474455    1.47627619   -1.83440136      0.00000000    0.00000000    0.00000000
    8   -8.41842105   -0.03615577   -8.53715989     -5.53976391  -11.83947053   -5.58574918      0.00000000    0.00000000    0.00000000
    1   -8.51281905    0.95930423   -8.54793889     -1.10517340    4.61000904    0.18933790      0.00000000    0.00000000    0.00000000
    1   -8.97907105   -0.81492677   -8.81850289      1.79100439   -1.03953531    3.41574461      0.00000000    0.00000000    0.00000000
    8    1.83666580   -6.99707864    5.91314575    513.51800544-1274.88356124 1197.68778563      0.00000000    0.00000000    0.00000000
    1    1.51858380   -6.27045664    6.52208875     47.60989121   21.73181401   66.42819689      0.00000000    0.00000000    0.00000000
    1    2.70744980   -7.25505064    5.49463275     15.77121263   22.75420583  -40.11555866      0.00000000    0.00000000    0.00000000
    8    8.01368297    4.10434813    3.13037133     -6.68731346   -2.08355967   -4.81190425      0.00000000    0.00000000    0.00000000
    1    8.54747897    3.26109313    3.06751533      1.31191404    0.37889319   -0.89628375      0.00000000    0.00000000    0.00000000
    1    7.44375697    4.64281613    2.50972433      8.34717610   -0.69704533   -0.43103239      0.00000000    0.00000000    0.00000000
    8   -3.05751251    4.94025616   -1.56408151      5.29868816   -2.77760506   13.31151280      0.00000000    0.00000000    0.00000000
    1   -2.74695251    5.67195716   -0.95734151     -7.39278189    0.90394626   -6.31588102      0.00000000    0.00000000    0.00000000
    1   -3.04594251    3.94044216   -1.54975351     -0.44460500   -2.69522971   -6.24561368      0.00000000    0.00000000    0.00000000
    8    1.04117264    0.26321589    5.78910683    193.94407816 1041.03582149 -683.62239670      0.00000000    0.00000000    0.00000000
    1    1.61444964    0.39304589    4.98011683      6.69165245    6.82024322    3.03483287      0.00000000    0.00000000    0.00000000
    1    0.11184964   -0.05987911    5.96781283      5.04930282   -6.12713441   -4.53522721      0.00000000    0.00000000    0.00000000
    8    3.42862024    6.42561402    1.56182054   1033.38637164  914.79951223 -333.50550618      0.00000000    0.00000000    0.00000000
    1    2.89796724    5.58165302    1.63994954     10.89988869  -89.24629459   -7.23521448      0.00000000    0.00000000    0.00000000
    1    4.39663224    6.66127302    1.47589354     27.45761119   15.85042678   -9.71640513      0.00000000    0.00000000    0.00000000
    8   -7.82752298    3.44393311   -0.17950363  -1114.65984501  754.82017022 -984.91067448      0.00000000    0.00000000    0.00000000
    1   -7.91627098    2.44885811   -0.13574763      4.90004063  -11.66533398    7.95455984      0.00000000    0.00000000    0.00000000
    1   -8.45531598    4.22034011   -0.23459463     -6.89988373   -2.59533084    0.94473221      0.00000000    0.00000000    0.00000000
    8    1.75936807   -1.95452838   -6.61097565    113.83936907  143.20174187   34.93357964      0.00000000    0.00000000    0.00000000
    1    1.73530207   -1.51746138   -7.51006365      2.12695006    3.75744757    0.73197274      0.00000000    0.00000000    0.00000000
    1    1.08270407   -2.25230038   -5.93760765     12.02899007   -4.04598319   10.09946138      0.00000000    0.00000000    0.00000000
    8    0.36128282   -7.66416326    2.29286962      0.25097004   -1.96684098   -8.10253041      0.00000000    0.00000000    0.00000000
    1   -0.04605418   -8.56089826    2.46581662     -1.37937734    9.37693411    4.27500098      0.00000000    0.00000000    0.00000000
    1    0.02868182   -6.72327226    2.22910162     -0.41499136   -6.60055298   -1.00945034      0.00000000    0.00000000    0.00000000
    8   -2.27320188   -8.84921613   -9.41480818      0.32703513   -9.44133130   -0.82966448      0.00000000    0.00000000    0.00000000
    1   -3.18076088   -8.71644613    9.18685182      3.69387709    1.69036382   -0.48011266      0.00000000    0.00000000    0.00000000
    1   -1.60809188   -8.27785713   -8.93403218     -2.42357964    3.10096272   -3.63593540      0.00000000    0.00000000    0.00000000
    8   -7.78160847    7.96612485    1.98594439     -2.50506422    3.43134378    3.14642624      0.00000000    0.00000000    0.00000000
    1   -8.48896247    7.33389985    1.66985939      0.11413902   -1.36728911   -0.86913510      0.00000000    0.00000000    0.00000000
    1   -6.81173347    7.90132385    2.22069939      1.14250765   -2.01556606    1.83529461      0.00000000    0.00000000    0.00000000
    8   -6.53833075    2.62221198    0.93589455   1080.63733636 -658.54696473  993.41156257      0.00000000    0.00000000    0.00000000
    1   -5.91323375    2.62978398    1.71638355      3.59469486   -6.90140513   -8.95601323      0.00000000    0.00000000    0.00000000
    1   -6.84670175    3.28633298    0.25485255    -52.12936123   23.86624452  -30.73209298      0.00000000    0.00000000    0.00000000
    8   -6.83998896    4.32555545    5.13160354      0.03828717   -9.39678239   -1.53788198      0.00000000    0.00000000    0.00000000
    1   -7.50007496    3.57542045    5.09223554     -0.82729723    1.60191563    2.93078243      0.00000000    0.00000000    0.00000000
    1   -5.84715696    4.40614945    5.21967954     -0.94849458    6.89417427    2.00423416      0.00000000    0.00000000    0.00000000
    8    3.28802844   -6.87085788   -6.06710080    -39.58024215   -7.44338341  -89.29034406      0.00000000    0.00000000    0.00000000
    1    3.82118344   -6.07690188   -5.77496280     -8.81086674   -7.27982996    4.77302323      0.00000000    0.00000000    0.00000000
    1    2.46995144   -7.34642488   -5.74375280     -3.24103839    2.89389460   -0.34159546      0.00000000    0.00000000    0.00000000
    8    4.94907999    3.04566779    3.61530171     51.43612399  -50.30599714 -124.81443532      0.00000000    0.00000000    0.00000000
    1    3.98781999    3.32124379    3.61767771     -0.92336332    0.65201094    8.36978265      0.00000000    0.00000000    0.00000000
    1    5.83195399    3.51523079    3.61213871     -4.35926977  -26.67112888   19.92983936      0.00000000    0.00000000    0.00000000
    8    2.78003262   -3.52900664    2.93015454   -898.69732248-2205.55419366  399.27673079      0.00000000    0.00000000    0.00000000
    1    3.64192762   -3.95204164    3.20969754      3.28447691    7.45452014    1.83729417      0.00000000    0.00000000    0.00000000
    1    1.84740362   -3.84451364    2.75515154      2.67919189    1.32592231    0.42369346      0.00000000    0.00000000    0.00000000
    8    7.45582189    7.92826486    5.91840758     28.95987959  -17.13434056   25.58735247      0.00000000    0.00000000    0.00000000
    1    7.29709889    8.91121686    6.01103458      1.77819060    1.93169544    9.04127431      0.00000000    0.00000000    0.00000000
    1    8.25377089    7.32557286    5.91615558      3.42917709   -1.24892268    1.95858129      0.00000000    0.00000000    0.00000000
    8    5.40974267    2.89328140    1.24947555    921.27582655  111.35282579 1227.63229337      0.00000000    0.00000000    0.00000000
    1    4.56991667    2.44422240    0.94450855     -3.33870396   29.61256776  -28.18953527      0.00000000    0.00000000    0.00000000
    1    5.64334667    3.61769940    1.89802355    -19.39126192  -29.91156842   -1.66688630      0.00000000    0.00000000    0.00000000
    8   -4.69651422    0.06838898    6.51953324    276.56855295-1458.36357412 -483.58217692      0.00000000    0.00000000    0.00000000
    1   -4.26532322   -0.73846002    6.11575724      2.19990901    2.91006138    0.50260621      0.00000000    0.00000000    0.00000000
    1   -5.25060322    0.25812598    7.33005824      2.28079195   19.50514312    1.58242105      0.00000000    0.00000000    0.00000000
    8    4.35370668    3.64406015    5.69777742    893.35179649-1193.67383608  -83.25124164      0.00000000    0.00000000    0.00000000
    1    5.31808268    3.81755515    5.89739142     22.53912442    0.61511126   -5.92176066      0.00000000    0.00000000    0.00000000
    1    3.66668268    2.97937415    5.99129942     38.24331168  -53.18718571   63.81974463      0.00000000    0.00000000    0.00000000
    8    2.65904245    5.76255203   -6.56548796   1365.36016511 -793.50817883 -876.21014305      0.00000000    0.00000000    0.00000000
    1    2.42350745    5.55183603   -5.61675796     15.84429486   -8.17341407   54.15387858      0.00000000    0.00000000    0.00000000
    1    2.19690445    5.70760203   -7.45057296     -4.94796739    1.76247687    3.61354761      0.00000000    0.00000000    0.00000000
    8   -2.07144509    6.03239870    8.23608260     11.31932768    2.59187116   13.92343136      0.00000000    0.00000000    0.00000000
    1   -2.92578709    5.51817470    8.31118360     -1.88224485   -1.41817621  -10.60925338      0.00000000    0.00000000    0.00000000
    1   -1.09780009    5.80780170    8.19684460     -7.07650013   -2.91150296   -4.47035149      0.00000000    0.00000000    0.00000000
    8    7.06869532    1.51623148    5.24515161   -505.80887395 1320.62090948 -977.07646870      0.00000000    0.00000000    0.00000000
    1    7.49020132    1.87586848    4.41270761    -12.80014901   -3.50305003    7.04024688      0.00000000    0.00000000    0.00000000
    1    7.08523332    0.64912848    5.74297261     51.45271323  -32.38086928   40.88278566      0.00000000    0.00000000    0.00000000
    8    5.92655438    1.03389487    8.18426018    210.33662560 -399.34009874 -787.63554501      0.00000000    0.00000000    0.00000000
    1    6.09465338    1.91051487    8.63508818     -3.68543346    5.84902906   27.01423921      0.00000000    0.00000000    0.00000000
    1    6.07232638    0.07026887    8.40818418      0.30714599    7.82949502    1.73890145      0.00000000    0.00000000    0.00000000
    8    0.84174732   -1.33659916    6.85896727   -167.61719520-1073.54793598  711.53867615      0.00000000    0.00000000    0.00000000
    1    1.36473532   -1.91449116    7.48545927     -1.45590456    4.03298490   -0.94285533      0.00000000    0.00000000    0.00000000
    1    0.05911432   -1.46133416    6.24913727      3.70857589   -8.26821145    0.89052526      0.00000000    0.00000000    0.00000000
    8    9.49563032   -6.92088908   -6.64850804      6.86285463    6.06417891   -4.38395911      0.00000000    0.00000000    0.00000000
    1   -8.52780668   -7.12183608   -6.72540604      0.02397653    0.19490395    1.44444347      0.00000000    0.00000000    0.00000000
    1    8.76485132   -6.65268208   -7.27619604     -0.96010591    1.85090520    1.15522419      0.00000000    0.00000000    0.00000000
    8   -8.41942096   -8.36920214    7.32124463     -2.21177885    6.05587346   -3.92509062      0.00000000    0.00000000    0.00000000
    1   -8.19167596   -9.31121014    7.56766063      0.28056352    2.48888945    0.43944793      0.00000000    0.00000000    0.00000000
    1   -8.04079496   -7.67389914    6.71037363      0.54177195    1.61166536   -0.95435992      0.00000000    0.00000000    0.00000000
    8   -4.70160663   -5.81628196    5.81223904      1.28896170    1.74691072   -1.27716407      0.00000000    0.00000000    0.00000000
    1   -4.80920963   -6.79571496    5.64165704     -0.59270454   -2.33051827    0.81884614      0.00000000    0.00000000    0.00000000
    1   -5.29418263   -5.01138696    5.78117704     -4.42177006    0.89720447    1.64653799      0.00000000    0.00000000    0.00000000
    8    2.28325720    2.77177136    5.48798645   -124.44806202  -78.29734176  -12.27474562      0.00000000    0.00000000    0.00000000
    1    1.41104920    3.00547436    5.91763945    -13.03975021    6.88225682    5.59360217      0.00000000    0.00000000    0.00000000
    1    3.20694120    3.15481336    5.48065045    -26.79705134   44.22761412  -75.98068647      0.00000000    0.00000000    0.00000000
    8    2.34141068    0.39648315    0.38382878  -1207.85204714  271.67075264  415.02628850      0.00000000    0.00000000    0.00000000
    1    2.69606668    1.24010615   -0.01926622      6.23509654   -1.78604284   -2.99331660      0.00000000    0.00000000    0.00000000
    1    1.50329768    0.12123015    0.85475178     -2.70577969   10.45616323   11.11164232      0.00000000    0.00000000    0.00000000
    8    1.65568867   -6.81180210   -0.37802118      5.72248071    8.43463335   -5.29053919      0.00000000    0.00000000    0.00000000
    1    1.31695567   -7.74678610   -0.27298218     -1.88969903   -0.82840500    4.38057923      0.00000000    0.00000000    0.00000000
    1    1.75544767   -6.16343810   -1.13276518     -2.34490466    0.17521563   -3.56094088      0.00000000    0.00000000    0.00000000
    8    2.04312848    3.00146977   -5.76623556    682.15335367  205.56948130-1391.34122643      0.00000000    0.00000000    0.00000000
    1    2.08098548    2.52589877   -4.88739256    -22.08005768   17.82583611   38.38264896      0.00000000    0.00000000    0.00000000
    1    1.38474848    3.58656277   -6.23970056      7.81662524    4.02360887    5.66811185      0.00000000    0.00000000    0.00000000
    8    5.94968000    5.28906306    4.76406884     30.73111885   30.00401476  -24.40568703      0.00000000    0.00000000    0.00000000
    1    6.00118300    6.27834206    4.90060284      6.09937714   -1.21602760   12.38014762      0.00000000    0.00000000    0.00000000
    1    6.00240100    4.66706306    3.98284884     -0.80836517   13.98362107   15.93481995      0.00000000    0.00000000    0.00000000
    8    6.04471529    2.89232185   -0.76713919    562.61495996  104.29737905 -532.92336575      0.00000000    0.00000000    0.00000000
    1    5.04562329    2.85798785   -0.79169919    -26.70576414  -19.22818803   18.85953474      0.00000000    0.00000000    0.00000000
    1    6.79263529    2.37851785   -1.18736219     -9.31906207   -0.39572644   -0.59507186      0.00000000    0.00000000    0.00000000
    8   -3.86806280   -3.31387277   -5.45505596      2.20843548  -10.20878247    0.26119609      0.00000000    0.00000000    0.00000000
    1   -4.29778180   -2.64239177   -6.05872896      1.98129424    4.92352597    0.07255965      0.00000000    0.00000000    0.00000000
    1   -3.86425080   -3.49919177   -4.47240096     -0.00132308    2.83440927    0.64941693      0.00000000    0.00000000    0.00000000
    8    3.67086692   -8.48178932    0.81458556    -51.39144028  -40.11508238   -8.92974610      0.00000000    0.00000000    0.00000000
    1    3.70543792   -7.51003532    0.58120756     -1.17903733    0.08190214   -2.36023632      0.00000000    0.00000000    0.00000000
    1    2.95395992   -9.14450132    1.03097756     -2.55273476    0.65388213    9.97862111      0.00000000    0.00000000    0.00000000
    8    4.10814644    0.07537058   -0.33714071   1119.48619826 1191.42912066-2360.93010578      0.00000000    0.00000000    0.00000000
    1    4.58164144    0.60896358    0.36360629     23.49008870  -47.96407269  -11.31969131      0.00000000    0.00000000    0.00000000
    1    3.48409144    0.27367758   -1.09291571      1.33399856   -8.96241109   -2.45994233      0.00000000    0.00000000    0.00000000
    8    3.34212932    7.37548852   -4.98070319    306.02501571  772.63451971  -97.38484017      0.00000000    0.00000000    0.00000000
    1    3.16239432    8.34965852   -5.11728219      9.48251090    0.99689991    2.11855364      0.00000000    0.00000000    0.00000000
    1    4.15335132    6.80440352   -4.85520819      9.24947888    7.88043634  -16.18296115      0.00000000    0.00000000    0.00000000
    8    7.43475002    7.97396590   -1.77329483     -4.01002949  -10.23351092    7.76867819      0.00000000    0.00000000    0.00000000
    1    7.55301702    8.80799890   -1.23443683      1.74911349    5.80100480   -6.44122556      0.00000000    0.00000000    0.00000000
    1    8.03741502    7.33446190   -2.25057483     -1.51532855    4.78611293   -0.77792712      0.00000000    0.00000000    0.00000000
    8   -3.09214445   -2.62466023    0.64117698    -16.75652061    5.72271198    6.78599099      0.00000000    0.00000000    0.00000000
    1   -2.23874545   -3.03019123    0.96862398      6.92370537   -0.51225105   -5.48844120      0.00000000    0.00000000    0.00000000
    1   -4.05795745   -2.67879023    0.89463598      0.68196855   -0.93950125    0.47201547      0.00000000    0.00000000    0.00000000
    8   -1.17862100    0.89884272    5.26505138    -86.70114961   14.38425791  -15.71831711      0.00000000    0.00000000    0.00000000
    1   -0.53741200    1.05878472    6.01554138      9.68363757   12.23650922    2.33972742      0.00000000    0.00000000    0.00000000
    1   -1.68223100    1.46845372    4.61552338      1.41933967    3.80203298   -0.51980954      0.00000000    0.00000000    0.00000000
    8   -1.15513524    4.99422527    1.57989878  -1920.03540949 -236.03652543-1099.79219530      0.00000000    0.00000000    0.00000000
    1   -1.60983224    5.18902327    0.71083478     -1.97697240   -0.40997765   -0.66491623      0.00000000    0.00000000    0.00000000
    1   -0.72038224    4.19861227    2.00174778    -17.07435903    4.44699772    4.09995130      0.00000000    0.00000000    0.00000000
    8    6.08189525    2.71906306   -4.34923138    616.78042818 1481.04015282 -874.38685437      0.00000000    0.00000000    0.00000000
    1    5.76364425    1.77131306   -4.37052338    -25.39159570  -37.42172039   28.64411689      0.00000000    0.00000000    0.00000000
    1    5.65236425    3.62206706   -4.34187338     -7.16723874    1.05907265   -4.63328493      0.00000000    0.00000000    0.00000000
    8    4.05187824   -1.09783477    1.09543426   -861.45446214-1251.02931297-1317.69792245      0.00000000    0.00000000    0.00000000
    1    3.42621924   -1.81981977    1.39082726    -75.72746035   73.12899821  -18.71113504      0.00000000    0.00000000    0.00000000
    1    4.20090924   -0.13632077    1.32618526     18.85810342  -26.60290352   -1.87581297      0.00000000    0.00000000    0.00000000
    8    6.26210438    3.51117746   -8.61403052    807.59469228 1546.44205334  458.29671728      0.00000000    0.00000000    0.00000000
    1    5.44466138    2.93702346   -8.65984952      2.91929608  -49.72153010  -13.11603464      0.00000000    0.00000000    0.00000000
    1    6.45379438    4.47719346   -8.44072152     -2.46446155   -6.76712145    0.70663034      0.00000000    0.00000000    0.00000000
    8    1.03571811    6.72332206   -6.31847233  -1406.44091573  803.50230567  185.06523674      0.00000000    0.00000000    0.00000000
    1    1.92062811    7.17177306   -6.19280433     27.80952917  -14.51446470    3.98233694      0.00000000    0.00000000    0.00000000
    1    0.07667211    6.97604006   -6.19068133      3.31469896    1.86494061    0.47369086      0.00000000    0.00000000    0.00000000
    8    9.28830400    3.28741402   -2.97106702     -6.15866610    4.75565738    2.46834394      0.00000000    0.00000000    0.00000000
    1    9.15311700    2.38437402   -2.56337802      1.42322811   -2.95452985   -5.31292822      0.00000000    0.00000000    0.00000000
    1    9.47693200    4.20892202   -2.63164302      4.79927365   -3.97824163   -1.94071504      0.00000000    0.00000000    0.00000000
    8    0.99585348    0.35972537    2.46703524    229.20115852 -109.92394647  339.60548044      0.00000000    0.00000000    0.00000000
    1    0.06750248   -0.01182063    2.47630224     -5.59442496  -30.39628384   57.46842923      0.00000000    0.00000000    0.00000000
    1    1.91988448   -0.01082263    2.56099624      5.68324350    2.70045703    1.81574005      0.00000000    0.00000000    0.00000000
    8    8.18971852   -4.55541166    3.51847574   -652.37207542  307.99441871-1398.21640436      0.00000000    0.00000000    0.00000000
    1    8.65082652   -5.29740766    3.03186774     -4.07635056    1.50574862    5.82085543      0.00000000    0.00000000    0.00000000
    1    7.30910052   -4.08692266    3.44778674      1.87920565   -5.26817626    1.21111600      0.00000000    0.00000000    0.00000000
    8   -9.45549863    6.94030787   -6.58008605      6.02705164   -1.22962612    9.25094760      0.00000000    0.00000000    0.00000000
    1    9.38930437    7.01405987   -7.56519605     -1.38402696   -1.49670128    1.48377107      0.00000000    0.00000000    0.00000000
    1   -8.69402263    6.67219087   -5.98997305      4.80333318   -0.29251638    1.52224844      0.00000000    0.00000000    0.00000000
    8    2.61349820    5.55917320   -4.52677188   -296.61361925 -780.91690497  747.77607631      0.00000000    0.00000000    0.00000000
    1    3.50794720    5.90743520   -4.24634388    -12.52777973    6.41713174    3.34401121      0.00000000    0.00000000    0.00000000
    1    1.69412520    5.93859820   -4.63048888     -6.38861167   12.92959728    1.84518538      0.00000000    0.00000000    0.00000000
    8    6.03502795   -7.96046493   -0.98939858     36.63366640  -41.92114921  -79.98593367      0.00000000    0.00000000    0.00000000
    1    6.04342695   -7.02316393   -0.64102658     -6.24760447   -0.14813537   15.72272270      0.00000000    0.00000000    0.00000000
    1    5.57782895   -8.81514793   -0.74352258     -0.68765086    6.68240093    0.15602887      0.00000000    0.00000000    0.00000000
    8   -2.78565259    4.64615889    3.66178833     23.42736362   36.53263292 -181.88549657      0.00000000    0.00000000    0.00000000
    1   -1.83829359    4.73256389    3.35354833     -3.19974195    7.41608381   -3.40361472      0.00000000    0.00000000    0.00000000
    1   -3.64072359    4.30475689    3.27157733      6.35485839    4.22718028   -1.02364379      0.00000000    0.00000000    0.00000000
    8    0.05425281   -6.52672162    6.04339509  -2264.77645900  616.76621343  178.24576479      0.00000000    0.00000000    0.00000000
    1   -0.69887619   -5.94292362    5.74017309      0.88861906   -2.43969829   -2.27850446      0.00000000    0.00000000    0.00000000
    1    1.05248181   -6.46783162    6.04954009     13.94744852 -101.64198679  -96.24335419      0.00000000    0.00000000    0.00000000
    8    4.40036236   -6.61743495   -4.01516971     36.76207802   22.07203400   86.55650507      0.00000000    0.00000000    0.00000000
    1    5.04257936   -6.32760095   -4.72476171      5.76409992   -7.55205785    3.13877092      0.00000000    0.00000000    0.00000000
    1    3.66268436   -6.18838495   -3.49390971      0.08293884   -4.03957934   -1.50539955      0.00000000    0.00000000    0.00000000
    8    5.64844000   -0.17507184    1.27139786    269.59512126 2325.33720077 1563.83737386      0.00000000    0.00000000    0.00000000
    1    5.90238400    0.77667016    1.44363586     13.24448701    2.56795841    7.51505186      0.00000000    0.00000000    0.00000000
    1    5.83741000   -0.85261384    0.56062686     38.51619114  -12.06611177   -9.32406408      0.00000000    0.00000000    0.00000000
    8    0.86576127   -0.03018504   -2.18968112    -10.64931595    8.93433958    5.25549012      0.00000000    0.00000000    0.00000000
    1    1.31907727    0.76844296   -1.79387212      6.04331756   -2.90134687   -2.88201420      0.00000000    0.00000000    0.00000000
    1   -0.03935473   -0.23149004   -2.56412412     -3.94760791   -3.32533480   -4.21869845      0.00000000    0.00000000    0.00000000
    8   -1.47007599    7.83295851    2.85982497      2.68485453   -5.97515937   -4.00791192      0.00000000    0.00000000    0.00000000