 BEGIN_INFO
   #
   # This is a XCRYSDEN-Structure-File
   # aimed for Visualization of Fermi Surface
   #
   # Case: Tight-binding calculation
   #
   # Launch as: xcrysden --xsf HICOLM.XSF
   #
 END_INFO
 # estrutura final
CRYSTAL
PRIMVEC
      19.00000000       0.00000000       0.00000000
       0.00000000      19.00000000       0.00000000
       0.00000000       0.00000000      19.00000000
PRIMCOORD
  300    1
    8   -4.20193539    2.72418771   -8.57013357     34.91912654  120.39978405   55.56257052      0.00000000    0.00000000    0.00000000
    1   -4.77481739    3.53559671   -8.68584857     -0.14194480    2.87383964    4.35184201      0.00000000    0.00000000    0.00000000
    1   -4.19545239    1.92871971   -7.96420057     -5.26943416  -11.32112001    3.64316690      0.00000000    0.00000000    0.00000000
    8   -3.98319175   -8.30183821    6.00428470  -2966.88849828  407.36326554 4330.97280873      0.00000000    0.00000000    0.00000000
    1   -3.60518775   -9.17961521    5.71002470     35.57957425 -128.20486258  -86.41489202      0.00000000    0.00000000    0.00000000
    1   -3.61680875   -7.39626221    6.21797170     19.24375895   38.01408539  -24.75894501      0.00000000    0.00000000    0.00000000
    8   -7.11359978   -8.37112732    1.86456637     -0.93854620  -20.56146282  -20.30875377      0.00000000    0.00000000    0.00000000
    1   -7.38495278   -7.97977132    0.98526237      0.46183710    3.25760236    3.36534570      0.00000000    0.00000000    0.00000000
    1   -6.30941878   -8.84480032    2.22358537     -1.06140583    4.83648022    4.39215804      0.00000000    0.00000000    0.00000000
    8    6.30340541   -5.42818995   -3.73068375    -47.47563264  -64.01264667  207.03401381      0.00000000    0.00000000    0.00000000
    1    7.09028441   -5.99521295   -3.48722275      0.46465765    5.29017552    0.37713183      0.00000000    0.00000000    0.00000000
    1    5.44086341   -5.56571495   -4.21758575     13.74371553    2.68997301    1.61092563      0.00000000    0.00000000    0.00000000
    8    6.99918339    1.48902533    5.51029396      1.28217548   -2.41561258    0.23594351      0.00000000    0.00000000    0.00000000
    1    7.66972739    2.01087333    6.03756196     -0.82044890    1.08020492   -0.70691829      0.00000000    0.00000000    0.00000000
    1    6.43520339    1.65308933    4.70098796     -0.58426774    1.45001096   -0.03025465      0.00000000    0.00000000    0.00000000
    8   -9.16772559    5.89344161    2.44044417   -134.34664637 -152.93192127  -35.62536683      0.00000000    0.00000000    0.00000000
    1   -9.44994559    5.30028761    1.68646417      0.24270504    3.89956847   -0.71575599      0.00000000    0.00000000    0.00000000
    1   -9.24987259    6.86544861    2.66049117      1.39712310   -0.09756876  -13.67434370      0.00000000    0.00000000    0.00000000
    8   -6.07756468    8.00968471   -2.18442383     23.52766955  -14.33608868   12.47392411      0.00000000    0.00000000    0.00000000
    1   -6.53982768    7.12354071   -2.15234283      6.25327398    3.48106913   -4.57029546      0.00000000    0.00000000    0.00000000
    1   -6.34480768    8.96527971   -2.06038783     -6.02892366    5.93141833   -6.24035185      0.00000000    0.00000000    0.00000000
    8    3.06217039    9.46688421   -5.28202103     -3.36485658   -0.03063213   -8.07989539      0.00000000    0.00000000    0.00000000
    1    2.54469439   -8.67980779   -5.34565703      0.28297391   -2.20696004   -0.42297529      0.00000000    0.00000000    0.00000000
    1    2.99675139    8.62412621   -4.74775103      0.22104320    2.05001061    2.13663091      0.00000000    0.00000000    0.00000000
    8   -9.06755090   -4.24283057   -7.09364621   1461.83684182-3694.95709657 4885.71448864      0.00000000    0.00000000    0.00000000
    1    9.31561910   -3.51951757   -6.78331421    -45.91151195    2.05658701    9.26865215      0.00000000    0.00000000    0.00000000
    1   -9.14613490   -5.05817257   -7.66723821     15.89093190   20.04308786  -15.80296747      0.00000000    0.00000000    0.00000000
    8    5.96987560   -3.84114510    4.28354660      2.77406086    1.05497879   -3.90973166      0.00000000    0.00000000    0.00000000
    1    5.03342360   -3.49052910    4.29322960     -0.13361411   -1.27290848    1.27924293      0.00000000    0.00000000    0.00000000
    1    6.87392560   -3.47206110    4.06805160     -2.18719510   -0.72879373    1.75570269      0.00000000    0.00000000    0.00000000
    8    4.40210471   -8.63724081   -8.08927341   1038.30083047-1452.77375719  159.99106989      0.00000000    0.00000000    0.00000000
    1    3.68395271   -9.33299581   -8.07709141     -2.92911862    4.62790427    0.05837265      0.00000000    0.00000000    0.00000000
    1    5.07841971   -8.29014081   -7.43959141     -0.39181240  -10.76400958   -4.20082859      0.00000000    0.00000000    0.00000000
    8   -9.13566361    2.24159422    2.13875618     -5.15303650   -2.27454542   -0.57369892      0.00000000    0.00000000    0.00000000
    1    9.48937739    3.16861822    2.13801018      1.55319209    0.91616240    3.04121329      0.00000000    0.00000000    0.00000000
    1    9.49005339    1.31430822    2.14299018      1.91709190   -1.08291964    0.80587369      0.00000000    0.00000000    0.00000000
    8    4.49842317   -7.71784548   -2.41341959   -789.15334274 4345.72641099 1456.67183386      0.00000000    0.00000000    0.00000000
    1    5.44010517   -7.99508048   -2.60405659     -6.00805150  -19.66943877  -10.13061077      0.00000000    0.00000000    0.00000000
    1    3.72639217   -7.37689848   -2.94978759      5.09047533   -3.70360577   -0.47439854      0.00000000    0.00000000    0.00000000
    8    0.95668548    5.27095259    6.72247538     -0.50499847    1.02219076    0.15829945      0.00000000    0.00000000    0.00000000
    1    0.08177748    4.78965259    6.66906638      0.57531024   -1.18285684   -0.43253114      0.00000000    0.00000000    0.00000000
    1    1.86532048    5.07289259    7.09006438     -0.25891980   -0.08378252   -0.00947400      0.00000000    0.00000000    0.00000000
    8    5.67044026    9.49322729    3.52012098      2.69580261   -5.37570683    0.42421232      0.00000000    0.00000000    0.00000000
    1    4.69887426   -9.43220971    3.74476698     -2.25089460    3.74540672   -0.04803187      0.00000000    0.00000000    0.00000000
    1    6.40141026   -8.87225771    3.26904098     -1.70176066    1.91567272   -0.35847345      0.00000000    0.00000000    0.00000000
    8    1.08183269    9.46427393    0.96307608      0.79467792   -2.84903587   -1.56681770      0.00000000    0.00000000    0.00000000
    1    0.98743469   -8.54026607    0.95229708     -0.78444423    1.61447444    0.44140532      0.00000000    0.00000000    0.00000000
    1    0.52118269    8.68550293    0.68173308      0.00824523    1.14100412    0.96691298      0.00000000    0.00000000    0.00000000
    8   -7.65131226    2.53878314   -3.63088311  -1101.68617778-2496.33353855 2979.58278805      0.00000000    0.00000000    0.00000000
    1   -7.96939426    3.26540514   -3.02194011     54.31344520   35.05420096   73.02801009      0.00000000    0.00000000    0.00000000
    1   -6.78052826    2.28081114   -4.04939611     17.29701228   36.66289516  -49.96971435      0.00000000    0.00000000    0.00000000
    8   -1.48619821   -5.39563049   -6.36953672    -11.20435159   -3.59771982   -4.08350213      0.00000000    0.00000000    0.00000000
    1   -0.95240221   -6.23888549   -6.43239272      3.30809732    0.75751638   -1.43798478      0.00000000    0.00000000    0.00000000
    1   -2.05612421   -4.85716249   -6.99018372     11.51810898    2.45425406   -4.11060021      0.00000000    0.00000000    0.00000000
    8    6.44230927   -4.55963901    7.93546883      3.71646616   -0.89809258    7.99142345      0.00000000    0.00000000    0.00000000
    1    6.75286927   -3.82793801    8.54220883     -3.79587921    1.76438168   -4.77184879      0.00000000    0.00000000    0.00000000
    1    6.45387927   -5.55945301    7.94979683     -0.80466311   -0.72828330   -2.90638932      0.00000000    0.00000000    0.00000000
    8   -8.46624929   -9.28170452   -3.68131288    338.80490534 2272.09311992-1512.63949215      0.00000000    0.00000000    0.00000000
    1   -7.89297229   -9.15187452   -4.49030288      1.52245002    2.74158690    2.32488433      0.00000000    0.00000000    0.00000000
    1   -9.39557229    9.39520048   -3.50260688     12.66647358   -5.06333594    0.37883365      0.00000000    0.00000000    0.00000000
    8   -6.10307378   -3.11425015   -7.92481309    711.38385371 2018.67895697 -516.93418331      0.00000000    0.00000000    0.00000000
    1   -6.63372678   -3.95821115   -7.84668409     29.29646278 -109.50177929  -15.31119744      0.00000000    0.00000000    0.00000000
    1   -5.13506178   -2.87859115   -8.01074009     31.31699984   11.69543386  -11.81725697      0.00000000    0.00000000    0.00000000
    8    1.30006136   -5.82209153   -9.99877208    -19.15021936   12.59196615   -6.15575752      0.00000000    0.00000000    0.00000000
    1    1.21131336   -6.81716653   -9.95501608     13.44919967   -1.86529258    4.83150448      0.00000000    0.00000000    0.00000000
    1    0.67226836   -5.04568453  -10.05386308      6.41502805   -3.12587123    3.25110139      0.00000000    0.00000000    0.00000000
    8   -7.74424816    7.54096927    2.88779361    120.16612116  154.06275728   39.96617531      0.00000000    0.00000000    0.00000000
    1   -7.76831416    7.97803627    1.98870561      1.94799830    2.66672109   -0.82896363      0.00000000    0.00000000    0.00000000
    1   -8.42091216    7.24319727    3.56116161     11.09418481   -5.54192171   10.50029644      0.00000000    0.00000000    0.00000000
    8   -9.13874700    1.83588643   -7.20685591     -3.15155290   -3.29844990   -5.34921685      0.00000000    0.00000000    0.00000000
    1    9.45391600    0.93915143   -7.03390891      2.33353456    2.22407520    4.98196660      0.00000000    0.00000000    0.00000000
    1   -9.47134800    2.77677743   -7.27062391      0.49991955   -1.01990839    0.77337894      0.00000000    0.00000000    0.00000000
    8    7.22677873    0.65117104    0.08528259     -0.87105291    1.89424173    5.75073818      0.00000000    0.00000000    0.00000000
    1    6.31921973    0.78394104   -0.31305741      1.52791162   -1.00485496   -1.56411791      0.00000000    0.00000000    0.00000000
    1    7.89188873    1.22253004    0.56605859     -0.08635100    0.71129082   -3.97136967      0.00000000    0.00000000    0.00000000
    8    1.71846800   -1.53400295   -7.51418797     -0.21533784    0.90460317   -0.37263587      0.00000000    0.00000000    0.00000000
    1    1.01111400   -2.16622795   -7.83027297      0.47653083   -0.13254119    0.96681793      0.00000000    0.00000000    0.00000000
    1    2.68834300   -1.59880395   -7.27943297     -0.07898353   -0.97798026    0.06228556      0.00000000    0.00000000    0.00000000
    8    3.32216201   -7.09812778   -8.24716547  -1032.33014969 1468.48037447 -139.30506545      0.00000000    0.00000000    0.00000000
    1    3.94725901   -7.09055578   -7.46667647     -3.84013389  -11.31884410  -13.00605109      0.00000000    0.00000000    0.00000000
    1    3.01379101   -6.43400678   10.07179253      2.64472154   -2.72582998   -0.31423842      0.00000000    0.00000000    0.00000000
    8    2.66005005   -5.17412101   -4.36836678      3.92251960   -5.68745436   -3.37666662      0.00000000    0.00000000    0.00000000
    1    1.99996405   -5.92425601   -4.40773478     -3.04526267    2.90895218    1.19119137      0.00000000    0.00000000    0.00000000
    1    3.65288205   -5.09352701   -4.28029078     -3.36368163    5.33277723    4.04814126      0.00000000    0.00000000    0.00000000
    8   -6.21072585    2.62947257    3.43563899    -42.45789225   -7.49018074  -92.49759975      0.00000000    0.00000000    0.00000000
    1   -5.67757085    3.42342857    3.72777699     -7.53639294   -4.04403238    2.78132509      0.00000000    0.00000000    0.00000000
    1   -7.02880285    2.15390557    3.75898699     -0.97710257    1.33769078   -2.19366693      0.00000000    0.00000000    0.00000000
    8   -4.55248555   -6.45294939   -5.88099278     42.74432230  -50.24872669 -100.55971957      0.00000000    0.00000000    0.00000000
    1   -5.51374555   -6.17737339   -5.87861678     -1.81351288    4.83204645    6.74450648      0.00000000    0.00000000    0.00000000
    1   -3.66961155   -5.98338639   -5.88415578     -4.05902099  -24.30614341   12.20208913      0.00000000    0.00000000    0.00000000
    8   -6.67924626    6.06920394   -6.59061477  -2353.15524170-5616.53780122 1341.77584099      0.00000000    0.00000000    0.00000000
    1   -5.81735126    5.64616894   -6.31107177      1.64132523   11.15197741   -0.76508170      0.00000000    0.00000000    0.00000000
    1   -7.61187526    5.75369694   -6.76561777      4.05001970    3.03299085   -0.12367201      0.00000000    0.00000000    0.00000000
    8   -2.04504367   -1.57117188   -3.58238099     28.70544241   -6.67774228   22.63171499      0.00000000    0.00000000    0.00000000
    1   -2.20376667   -0.58821988   -3.48975399      2.19474773   -0.49861235   13.16237107      0.00000000    0.00000000    0.00000000
    1   -1.24709467   -2.17386388   -3.58463299      1.55317755   -3.03734758    1.20993067      0.00000000    0.00000000    0.00000000
    8   -4.13155016   -6.61645501   -8.30593766   2286.40145755  717.76689746 3014.25165935      0.00000000    0.00000000    0.00000000
    1   -4.97137616   -7.06551401   -8.61090466     -8.88118529   39.79105377  -48.87742174      0.00000000    0.00000000    0.00000000
    1   -3.89794616   -5.89203701   -7.65738966    -16.78271075  -23.21492620   -6.36801128      0.00000000    0.00000000    0.00000000
    8    4.79018502   -9.36050695   -2.95684865    794.46349381-4348.36255149-1444.61042523      0.00000000    0.00000000    0.00000000
    1    5.22137602    8.83264405   -3.36062465     -1.67369393    0.78674343    1.51407501      0.00000000    0.00000000    0.00000000
    1    4.23609602   -9.17076995   -2.14632365     -0.05678342   24.85966740    3.14872023      0.00000000    0.00000000    0.00000000
    8   -5.19203360   -5.79400094   -3.79349070   3004.04686516-4106.35951542 -804.82028546      0.00000000    0.00000000    0.00000000
    1   -4.22765760   -5.62050594   -3.59387670     22.44449140    8.06525553   -4.49246002      0.00000000    0.00000000    0.00000000
    1   -5.87905760   -6.45868694   -3.49996870     39.57283024  -53.37593720   81.25758443      0.00000000    0.00000000    0.00000000
    8   -6.91039191   -3.69679880    2.96863077   4538.47845316-2673.23910408-1604.71232053      0.00000000    0.00000000    0.00000000
    1   -7.14592691   -3.90751480    3.91736077     27.43858338  -12.09118744   52.17079565      0.00000000    0.00000000    0.00000000
    1   -7.37252991   -3.75174880    2.08354577     -6.87563725    2.13313646    6.99275474      0.00000000    0.00000000    0.00000000
    8    7.42809586   -3.46757358   -1.26437985      4.87254669   -0.13829052    8.94079509      0.00000000    0.00000000    0.00000000
    1    6.57375386   -3.98179758   -1.18927885     -3.04535299   -2.05389197   -5.48376108      0.00000000    0.00000000    0.00000000
    1    8.40174086   -3.69217058   -1.30361785     -5.87251294    0.91205812   -0.42782323      0.00000000    0.00000000    0.00000000
    8   -2.40634113   -8.04910420   -4.20659796  -1706.34670681 4368.99697865-3254.78072364      0.00000000    0.00000000    0.00000000
    1   -1.98483513   -7.68946720   -5.03904196     -5.33448697   -5.21580787    8.88057776      0.00000000    0.00000000    0.00000000
    1   -2.38980313   -8.91620720   -3.70877696     95.59425010  -45.38978034   69.85615724      0.00000000    0.00000000    0.00000000
    8   -3.58005914   -8.45287225   -1.29034061    205.99075821 -471.26815689 -851.79278931      0.00000000    0.00000000    0.00000000
    1   -3.41196014   -7.57625225   -0.83951261      1.04058534    8.13583399   29.57584000      0.00000000    0.00000000    0.00000000
    1   -3.43428714   -9.41649825   -1.06641661      1.88621648    5.64822104    0.36644945      0.00000000    0.00000000    0.00000000
    8   -8.65151977    8.20913419   -2.67140658   -319.63250651-2290.57988202 1528.90405678      0.00000000    0.00000000    0.00000000
    1   -8.12853177    7.63124219   -2.04491458     -1.61997190    7.72450317   -2.40170560      0.00000000    0.00000000    0.00000000
    1   -9.43415277    8.08439919   -3.28123658      7.46037715  -10.42271028    0.41402154      0.00000000    0.00000000    0.00000000
    8   -0.00464736    2.57886986    2.85167924      0.01765455    0.23625115    0.21092430      0.00000000    0.00000000    0.00000000
    1    0.97191564    2.37792286    2.77478124     -0.24726936    0.25045926    0.17112332      0.00000000    0.00000000    0.00000000
    1   -0.73542636    2.84707686    2.22399124      0.30502539   -0.47652172   -0.37213664      0.00000000    0.00000000    0.00000000
    8    1.08065070    1.13057495   -2.17860840     -0.77692572    1.28463447   -1.38898551      0.00000000    0.00000000    0.00000000
    1    1.30839570    0.18856695   -1.93219240      0.26706111   -0.38992460    0.08795257      0.00000000    0.00000000    0.00000000
    1    1.45927670    1.82587795   -2.78947940      0.36189281   -1.02492284    0.95132746      0.00000000    0.00000000    0.00000000
    8    4.79838269    3.68366499   -3.68772645      2.89874009    1.13099108   -1.89993308      0.00000000    0.00000000    0.00000000
    1    4.69077969    2.70423199   -3.85830845     -0.46777825   -1.95495135    1.01472904      0.00000000    0.00000000    0.00000000
    1    4.20580669    4.48855999   -3.71878845     -1.40663903    0.44279798    0.10205128      0.00000000    0.00000000    0.00000000
    8   -7.21278255   -6.72571360   -4.01169044   -142.43099600 -107.11170821  -21.69804070      0.00000000    0.00000000    0.00000000
    1   -8.08499055   -6.49201060   -3.58203744    -10.09510399    8.52672230    6.33035280      0.00000000    0.00000000    0.00000000
    1   -6.28909855   -6.34267160   -4.01902644    -29.27507319   41.99729683  -88.83751101      0.00000000    0.00000000    0.00000000
    8   -7.10289924   -9.11623794   -9.13512242  -3078.83731616  723.74424300 1023.73415784      0.00000000    0.00000000    0.00000000
    1   -6.74824324   -8.27261494    9.46178258      4.56074608    1.39822057    0.70977130      0.00000000    0.00000000    0.00000000
    1   -7.94101224   -9.39149094   -8.66419942     -3.53581286    4.42147583    5.76268251      0.00000000    0.00000000    0.00000000
    8   -7.84452371    2.68797371    9.12215255      1.56020885   10.91624554   -4.70264982      0.00000000    0.00000000    0.00000000
    1   -8.18325671    1.75298971    9.22719155     -0.89779696   -1.78360208    2.79573118      0.00000000    0.00000000    0.00000000
    1   -7.74476471    3.33633771    8.36740855     -0.96430001   -2.21687699   -0.90366965      0.00000000    0.00000000    0.00000000
    8   -7.49027243   -6.50853016    3.80147446   2046.77375397  604.62069931-4133.54860057      0.00000000    0.00000000    0.00000000
    1   -7.45241543   -6.98410116    4.68031746    -32.83254357   25.62111971   45.76403845      0.00000000    0.00000000    0.00000000
    1   -8.14865243   -5.92343716    3.32800946      8.96280395    3.89260478    5.78662574      0.00000000    0.00000000    0.00000000
    8   -3.55119303   -4.21179425   -4.73517151     43.63668558   33.53178870  -22.86012812      0.00000000    0.00000000    0.00000000
    1   -3.49969003   -3.22251525   -4.59863751      1.97580237    2.86101481    9.46307139      0.00000000    0.00000000    0.00000000
    1   -3.49847203   -4.83379425   -5.51639151     -1.73903252   16.24858565   16.75805104      0.00000000    0.00000000    0.00000000
    8   -3.47586525   -6.61151429    8.75233611    860.18966767  157.20707613 -819.23770083      0.00000000    0.00000000    0.00000000
    1   -4.47495725   -6.64584829    8.72777611    -25.65862623  -23.06078547   23.18531601      0.00000000    0.00000000    0.00000000
    1   -2.72794525   -7.12531829    8.33211311     -8.56108874    1.58005854   -0.46447933      0.00000000    0.00000000    0.00000000
    8    5.63186818    6.18645987    4.04493395      1.35305526   -6.91570004    0.55256499      0.00000000    0.00000000    0.00000000
    1    5.20214918    6.85794087    3.44126095      1.08635538    5.13585900    0.00365451      0.00000000    0.00000000    0.00000000
    1    5.63568018    6.00114087    5.02758895     -0.50482886    2.48390590   -0.17850433      0.00000000    0.00000000    0.00000000
    8   -5.82751447    1.01939564   -8.68509569    -52.37125096  -51.33713843   -1.29102658      0.00000000    0.00000000    0.00000000
    1   -5.79294347    1.99114964   -8.91847369      0.70198758    5.83916392   -2.00684259      0.00000000    0.00000000    0.00000000
    1   -6.54442147    0.35668364   -8.46870369     -4.40551994    0.43970306    5.94102364      0.00000000    0.00000000    0.00000000
    8   -5.44180317    9.52434005    9.26635244   2655.81376780 2888.55925729-5836.75592765      0.00000000    0.00000000    0.00000000
    1   -4.96830817   -8.94206695   -9.03290056     22.12220280  -53.36589223  -18.22824453      0.00000000    0.00000000    0.00000000
    1   -6.06585817   -9.27735295    8.51057744     -2.67551080  -14.18525105    7.03613085      0.00000000    0.00000000    0.00000000
    8   -6.16924931   -2.15306373    4.52303919    489.48013038 1186.36670712 -166.22110496      0.00000000    0.00000000    0.00000000
    1   -6.34898431   -1.17889373    4.38646019      5.25548254    3.12546877    0.49010743      0.00000000    0.00000000    0.00000000
    1   -5.35802731   -2.72414873    4.64853419      7.58337568   12.22424219  -18.44007967      0.00000000    0.00000000    0.00000000
    8   -2.06511343   -1.52570737    7.72644422     -0.92585165   -6.49998728    5.25787541      0.00000000    0.00000000    0.00000000
    1   -1.94684643   -0.69167437    8.26530222      0.40867612    5.97517527   -2.01190658      0.00000000    0.00000000    0.00000000
    1   -1.46244843   -2.16521137    7.24916422     -0.74142259    2.14227493   -2.33446811      0.00000000    0.00000000    0.00000000
    8    6.40840446    6.87520221   -8.85905218    -20.60373473    7.94874709    5.60031662      0.00000000    0.00000000    0.00000000
    1    7.26180346    6.46967121   -8.53160518      5.92765912   -2.80819127   -6.88631490      0.00000000    0.00000000    0.00000000
    1    5.44259146    6.82107221   -8.60559318      1.77248333   -1.85314699   -0.05723470      0.00000000    0.00000000    0.00000000
    8    8.32398349   -8.60160279   -4.23451009    -78.10644059    9.60442570  -18.02615010      0.00000000    0.00000000    0.00000000
    1    8.96519249   -8.44166079   -3.48402009     11.55046760   14.50011404    2.58556131      0.00000000    0.00000000    0.00000000
    1    7.82037349   -8.03199179   -4.88403809     -0.01984843    1.95565821    0.13683871      0.00000000    0.00000000    0.00000000
    8    8.44234941   -4.49164159   -7.86682502  -6293.83156987-1064.00827581-3274.11758899      0.00000000    0.00000000    0.00000000
    1    7.98765241   -4.29684359   -8.73588902     -0.82690193    1.01102100   -0.64833503      0.00000000    0.00000000    0.00000000
    1    8.87710241   -5.28725459   -7.44497602    -19.71940117    2.07650598   11.97575003      0.00000000    0.00000000    0.00000000
    8   -3.44585036   -6.85126002    5.19098824   1508.23224605 4058.96502814-2225.83293652      0.00000000    0.00000000    0.00000000
    1   -3.76410136   -7.79901002    5.16969624    -30.80225986  -56.57548124   48.46039959      0.00000000    0.00000000    0.00000000
    1   -3.87538136   -5.94825602    5.19834624     -4.86995651    0.43239536   -5.86376203      0.00000000    0.00000000    0.00000000
    8   -5.39958374    8.46075184   -8.37333398  -3776.77850387-4280.20481241  804.69600343      0.00000000    0.00000000    0.00000000
    1   -6.02524274    7.73876684   -8.07794098    -73.27621886   92.00745899   13.11636146      0.00000000    0.00000000    0.00000000
    1   -5.25055274   -9.57773416   -8.14258298     14.05308426  -42.43589319   49.72364098      0.00000000    0.00000000    0.00000000
    8   -3.27772634   -6.06606375    0.86240003   2583.73937299 5074.73977278 1572.80312438      0.00000000    0.00000000    0.00000000
    1   -4.09516934   -6.64021775    0.81658103     15.48028816  -69.29777335  -23.21802334      0.00000000    0.00000000    0.00000000
    1   -3.08603634   -5.10004775    1.03570903     -1.18555328   -7.18703804    1.09474343      0.00000000    0.00000000    0.00000000
    8   -8.39314941   -2.81787797    3.17232850  -4633.15223276 2714.78556547  607.11260217      0.00000000    0.00000000    0.00000000
    1   -7.50823941   -2.36942697    3.29799650     29.73417708  -20.17271300    0.13241926      0.00000000    0.00000000    0.00000000
    1   -9.35219541   -2.56515997    3.30011950      3.48429037    2.23691351   -2.02090339      0.00000000    0.00000000    0.00000000
    8   -0.21147862   -6.21276897    6.52885134     -2.31622778    1.36206821    2.44153186      0.00000000    0.00000000    0.00000000
    1   -0.34666562   -7.11580897    6.93654034      0.54853434    0.41449614   -4.82376378      0.00000000    0.00000000    0.00000000
    1   -0.02285062   -5.29126097    6.86827534      0.98115312   -3.16235871   -3.24652138      0.00000000    0.00000000    0.00000000
    8   -8.51182922   -9.13670097   -7.04405327    292.37880160 -134.47198896  397.32800814      0.00000000    0.00000000    0.00000000
    1   -9.44018022    9.49175303   -7.03478627     -2.68070518  -31.34004510   58.37381310      0.00000000    0.00000000    0.00000000
    1   -7.58779822    9.49275103   -6.95009227     12.53983546    2.78106410   -3.69893337      0.00000000    0.00000000    0.00000000
    8   -1.27815688    4.92964775   -5.91309897  -1994.76978899  911.04773605-4222.96515571      0.00000000    0.00000000    0.00000000
    1   -0.81704888    4.18765175   -6.39970697     -3.08320763    1.14833572    7.13990077      0.00000000    0.00000000    0.00000000
    1   -2.15877488    5.39813675   -5.98378797      2.34503402   -3.71133570    4.84993312      0.00000000    0.00000000    0.00000000
    8    0.04439754   -2.55962147    2.91959497      0.09851536    1.83749598   -0.71267324      0.00000000    0.00000000    0.00000000
    1   -0.11079946   -2.48586947    1.93448497      0.22382386   -0.80762960    0.73916225      0.00000000    0.00000000    0.00000000
    1    0.80587354   -2.82773847    3.50970797     -0.23520055   -1.33232866   -0.04849073      0.00000000    0.00000000    0.00000000
    8   -6.87583301   -3.91189751    4.94593059   -428.17568851-1222.86365471 1124.89503147      0.00000000    0.00000000    0.00000000
    1   -5.98138401   -3.56363551    5.22635859    -19.33858806    4.72234684    2.11778474      0.00000000    0.00000000    0.00000000
    1   -7.79520601   -3.53247251    4.84221359     -8.48025726   15.28067003    3.53724409      0.00000000    0.00000000    0.00000000
    8   -3.46597746    1.54084844    8.51298014     36.67139013  -51.24326449  -79.73105209      0.00000000    0.00000000    0.00000000
    1   -3.45757846    2.47814944    8.86135214     -6.65245637    0.29974809   15.97618047      0.00000000    0.00000000    0.00000000
    1   -3.92317646    0.68616544    8.75885614     -2.08699878    5.92007588    2.05133091      0.00000000    0.00000000    0.00000000
    8    6.71357659   -4.85498841   -5.83247016     23.27712477   41.46155728 -196.11530954      0.00000000    0.00000000    0.00000000
    1    7.66093559   -4.76858341   -6.14071016     -1.30973219    9.66117335   -5.94850826      0.00000000    0.00000000    0.00000000
    1    5.85850559   -5.19639041   -6.22268116      4.91561896    5.18899915   -1.68399015      0.00000000    0.00000000    0.00000000
    8   -9.39354724    2.95673735   -3.45865747  -3211.15383030  794.58401923  335.41067954      0.00000000    0.00000000    0.00000000
    1    8.85332376    3.54053535   -3.76187947      1.44479138   -5.52233753   -2.19119668      0.00000000    0.00000000    0.00000000
    1   -8.39531824    3.01562735   -3.45251247     20.98596269 -124.03405814 -114.00626931      0.00000000    0.00000000    0.00000000
    8   -5.10068971    2.88192134    5.48215587     43.64288317   21.08476301   85.31866477      0.00000000    0.00000000    0.00000000
    1   -4.45847271    3.17175534    4.77256387      5.49174504   -6.93168487    3.62950233      0.00000000    0.00000000    0.00000000
    1   -5.83836771    3.31097134    6.00341587      2.11586713   -2.26363476    0.24276836      0.00000000    0.00000000    0.00000000
    8   -3.86284973    9.22213127   -8.29505444    230.86057394 5833.56772522 3787.24063883      0.00000000    0.00000000    0.00000000
    1   -3.60890573   -8.82612673   -8.12281644     15.42989116   -2.84210985    3.36684843      0.00000000    0.00000000    0.00000000
    1   -3.67387973    8.54458927   -9.00582544     38.60892921   -2.22052094    1.95528737      0.00000000    0.00000000    0.00000000
    8   -8.63388902    9.46948900    7.31012976     -8.28222550    4.41151965    1.96247870      0.00000000    0.00000000    0.00000000
    1   -8.18057302   -8.73188300    7.70593876      3.55359365   -3.21086544   -3.91377095      0.00000000    0.00000000    0.00000000
    1    9.46099498    9.26818400    6.93568676     -0.76122976   -2.34617863   -2.66312307      0.00000000    0.00000000    0.00000000
    8    8.02988132   -1.66679213   -6.64003792      5.00828306    2.03196915   -3.49297965      0.00000000    0.00000000    0.00000000