 BEGIN_INFO
   #
   # This is a XCRYSDEN-Structure-File
   # aimed for Visualization of Fermi Surface
   #
   # Case: Tight-binding calculation
   #
   # Launch as: xcrysden --xsf HICOLM.XSF
   #
 END_INFO
 # estrutura final
CRYSTAL
PRIMVEC
      19.00000000       0.00000000       0.00000000
       0.00000000      19.00000000       0.00000000
       0.00000000       0.00000000      19.00000000
PRIMCOORD
  300    1
    8    5.30665024   -6.75285919    0.96351390     38.38738352  120.90386871   46.27510827      0.00000000    0.00000000    0.00000000
    1    4.73323500   -5.94228320    0.84464496     -1.42541607    2.98134932    3.11637646      0.00000000    0.00000000    0.00000000
    1    5.31460986   -7.54512819    1.57360622     -4.55948629  -12.86620986    4.71629640      0.00000000    0.00000000    0.00000000
    8    5.54925061    1.22743665   -2.97696735   -372.69167612   88.17270311  665.64009806      0.00000000    0.00000000    0.00000000
    1    5.95022594    0.34989268   -3.23984090      7.02866480  -12.09761964  -40.22191129      0.00000000    0.00000000    0.00000000
    1    5.89573686    2.13847624   -2.75354018      6.62181055   13.63721904  -11.03472556      0.00000000    0.00000000    0.00000000
    8    2.39057249    1.13197704   -7.63385754      4.76169593  -31.27816289  -14.83127565      0.00000000    0.00000000    0.00000000
    1    2.11991009    1.52457265   -8.51282172      0.77871187    8.24795717    0.09825251      0.00000000    0.00000000    0.00000000
    1    3.19390888    0.65655808   -7.27525569     -2.28929494    6.96535951   -0.65862443      0.00000000    0.00000000    0.00000000
    8   -3.16388856    4.09208695    5.79617157    -43.71260498  -47.38288237  153.92382021      0.00000000    0.00000000    0.00000000
    1   -2.37825559    3.52270274    6.03814133      3.55577232    2.49365311    3.47837324      0.00000000    0.00000000    0.00000000
    1   -4.02879853    3.95657842    5.31291847      8.76951670    0.63035059    1.94694525      0.00000000    0.00000000    0.00000000
    8   -2.49854272   -8.01728636   -3.97817297      5.51995956   -6.17381888    0.40420487      0.00000000    0.00000000    0.00000000
    1   -1.82813897   -7.49454536   -3.45161167     -1.10360088    2.06491628    0.83226263      0.00000000    0.00000000    0.00000000
    1   -3.06251858   -7.85449220   -4.78773824     -1.15026107    3.49246074    0.64928606      0.00000000    0.00000000    0.00000000
    8    0.31360737   -3.59379667   -7.08178540    -93.63807095 -110.48574798  -26.52102235      0.00000000    0.00000000    0.00000000
    1    0.03177452   -4.18487186   -7.83754064     -1.31023450    3.97020392   -2.36962754      0.00000000    0.00000000    0.00000000
    1    0.22861397   -2.62297216   -6.85763745     -3.20126001    4.94117562  -14.48864480      0.00000000    0.00000000    0.00000000
    8    3.43394435   -1.49294161    7.30878580     33.41292503  -15.32681009   20.46043252      0.00000000    0.00000000    0.00000000
    1    2.96721025   -2.37662730    7.34380466      4.14165207    4.22962751   -7.26744784      0.00000000    0.00000000    0.00000000
    1    3.17188351   -0.53572004    7.43132763    -10.13075361    6.33540110   -1.43740068      0.00000000    0.00000000    0.00000000
    8   -6.44031044   -0.03970640    4.21322066     -1.84195407   -0.34774178  -11.08696569      0.00000000    0.00000000    0.00000000
    1   -6.95705934    0.81419001    4.15160107      2.61644137   -4.02068052    0.96202411      0.00000000    0.00000000    0.00000000
    1   -6.50673006   -0.88386385    4.74515276      1.43614704    1.30126420    5.39905604      0.00000000    0.00000000    0.00000000
    8    0.66027268    5.18520234    2.52948013    114.18273954 -518.95172139  730.93804417      0.00000000    0.00000000    0.00000000
    1    0.04961240    5.90883942    2.85105479    -27.04543445    2.05318010    3.18225157      0.00000000    0.00000000    0.00000000
    1    0.56493640    4.35450785    1.98100727     10.68323206    8.14084204   -3.83239799      0.00000000    0.00000000    0.00000000
    8   -3.52539478    5.65915841   -5.22099169      0.30559129    8.83868350   -3.29817243      0.00000000    0.00000000    0.00000000
    1   -4.46192867    6.00958583   -5.21247228     -2.84254958   -1.97136447    2.89202661      0.00000000    0.00000000    0.00000000
    1   -2.62114624    6.02843884   -5.43531397     -3.84741507   -3.57867249   -0.61494942      0.00000000    0.00000000    0.00000000
    8   -5.10597082    0.85940510    1.41111475     35.78359545  -39.44895637   10.91698580      0.00000000    0.00000000    0.00000000
    1   -5.82230489    0.16178929    1.42389766      1.75178236    1.21381732    2.40996706      0.00000000    0.00000000    0.00000000
    1   -4.43047173    1.20873276    2.06045152     -1.24554283   -7.00754900    0.83721853      0.00000000    0.00000000    0.00000000
    8    0.36853056   -7.27587573   -7.34551099     -1.12912690   -8.74585211   -2.81443613      0.00000000    0.00000000    0.00000000
    1   -0.00624364   -6.34878146   -7.34847803      0.91844192    1.32866093    3.85528943      0.00000000    0.00000000    0.00000000
    1   -0.00593956   -8.20307692   -7.33958655      3.76283119   -1.72330684   -0.04228780      0.00000000    0.00000000    0.00000000
    8   -5.05126426    1.59982526    7.20768702    -94.36799274  426.33228304  160.54243945      0.00000000    0.00000000    0.00000000
    1   -4.10558510    1.34445719    7.00657935     -2.51995191  -12.48845341   -4.91163703      0.00000000    0.00000000    0.00000000
    1   -5.82924867    1.94751943    6.68441310      4.86156298   -2.91785558    2.45967756      0.00000000    0.00000000    0.00000000
    8   -8.54647133   -4.21355466   -2.79178066     -1.33119125   -2.57048769   -7.93267951      0.00000000    0.00000000    0.00000000
    1   -9.42204978   -4.69346367   -2.84669827      0.33038233   -2.61065022    3.48585561      0.00000000    0.00000000    0.00000000
    1   -7.63858259   -4.41335522   -2.42329081      1.18838907    0.40545847    0.83826686      0.00000000    0.00000000    0.00000000
    8   -3.82306269   -0.00609885   -5.98420719     -4.18538568   -7.29519928    6.27542262      0.00000000    0.00000000    0.00000000
    1   -4.79504739    0.06597610   -5.76056263      0.41871830    5.44821407   -1.52275180      0.00000000    0.00000000    0.00000000
    1   -3.09320829    0.63041150   -6.23347556     -0.13873699   -0.03589426   -4.97428583      0.00000000    0.00000000    0.00000000
    8   -8.42731218   -0.04661171   -8.52789757     -8.29782915   -4.00433452    5.37334872      0.00000000    0.00000000    0.00000000
    1   -8.52260596    0.94875886   -8.53904676      4.17996596    4.12739196   -0.75604851      0.00000000    0.00000000    0.00000000
    1   -8.98756190   -0.82601292   -8.80829121      3.44765017    2.10533463   -2.72873874      0.00000000    0.00000000    0.00000000
    8    1.42543887   -8.07890489    5.43726097    145.92391845 -612.66696837  -54.73400883      0.00000000    0.00000000    0.00000000
    1    1.30147216   -7.32199609    6.07602349    -19.51318236   23.48926182  -13.31316076      0.00000000    0.00000000    0.00000000
    1    2.19654381   -8.49367203    4.95510692      3.28842883    7.96909952   -0.13643698      0.00000000    0.00000000    0.00000000
    8    8.01928387    4.12693176    3.08513645    -18.97956846   -1.38608627   -5.86375405      0.00000000    0.00000000    0.00000000
    1    8.55526165    3.28533886    3.01867415      2.02879396    0.61575627    1.32477173      0.00000000    0.00000000    0.00000000
    1    7.44412915    4.66402740    2.46813449     12.39445287    3.10039109   -4.30815209      0.00000000    0.00000000    0.00000000
    8   -3.05060779    4.94358363   -1.56880586      2.68294300   -0.05810644    9.31568722      0.00000000    0.00000000    0.00000000
    1   -2.73866544    5.67539637   -0.96291034     -3.78903623   -0.57581069   -5.97795824      0.00000000    0.00000000    0.00000000
    1   -3.04062353    3.94376733   -1.55348070      0.12767743    0.00004079   -6.10427083      0.00000000    0.00000000    0.00000000
    8    1.00613613    0.20173631    5.70828579    110.10981516  562.94533102 -453.27262488      0.00000000    0.00000000    0.00000000
    1    1.58917983    0.34748672    4.90904670      2.85628607   -0.47346432    4.43074894      0.00000000    0.00000000    0.00000000
    1    0.07079588   -0.11365394    5.86839528      3.98815523    0.41245426   -6.87236900      0.00000000    0.00000000    0.00000000
    8    3.68521384    6.60980180    1.11965789    929.47881066 -510.21105108   77.89901883      0.00000000    0.00000000    0.00000000
    1    3.18726903    5.75094984    1.23961384    -13.19456332   31.14608811 -173.65372630      0.00000000    0.00000000    0.00000000
    1    4.64115998    6.87570272    0.99544270     20.69539680    3.81962413  -24.89860543      0.00000000    0.00000000    0.00000000
    8   -7.78563987    4.24447284   -0.98133478     -0.10198897    9.23292960   10.48635044      0.00000000    0.00000000    0.00000000
    1   -7.96535612    3.26903534   -0.98084449      3.48125497   -6.96284875   -0.57099288      0.00000000    0.00000000    0.00000000
    1   -8.33572922    5.06855617   -1.05494925      3.77388077    0.84260284   -1.41245970      0.00000000    0.00000000    0.00000000
    8    1.81354162   -1.94865098   -6.59240890     99.56443510   96.63127763   35.78574854      0.00000000    0.00000000    0.00000000
    1    1.79920525   -1.51083816   -7.49134173     -2.18260433    0.64133648    1.92487662      0.00000000    0.00000000    0.00000000
    1    1.12979648   -2.24293986   -5.92468638      5.96411355   -2.13781270    7.74963075      0.00000000    0.00000000    0.00000000
    8    0.34168744   -7.66940122    2.28071724     -3.63218136   -2.43989092  -10.33559960      0.00000000    0.00000000    0.00000000
    1   -0.06775424   -8.56560575    2.45142963      2.92805750    1.17601576    5.05191880      0.00000000    0.00000000    0.00000000
    1    0.01108305   -6.72774216    2.21791118      0.48542173   -1.65006523    1.19033474      0.00000000    0.00000000    0.00000000
    8   -2.19733252   -8.84612927   -9.43551505     -1.72675650    3.04853245    1.83802836      0.00000000    0.00000000    0.00000000
    1   -3.25614526   -8.71748949    9.15816428     -0.36711539    0.80164911   -1.45530248      0.00000000    0.00000000    0.00000000
    1   -1.53609785   -8.27494709   -8.94921547     -0.81585783    0.17942293   -3.69910478      0.00000000    0.00000000    0.00000000
    8   -7.79412816    7.95463560    1.98890795     -8.73900819    3.89725111   -1.25945479      0.00000000    0.00000000    0.00000000
    1   -8.50059513    7.32157303    1.67251567     -0.53998601    0.02084616    2.10892612      0.00000000    0.00000000    0.00000000
    1   -6.82417885    7.89106741    2.22369299     -5.06101243   -2.03552140    0.72802632      0.00000000    0.00000000    0.00000000
    8   -6.26277193    3.01010981    1.09207712    -27.32788067   46.39246055    1.68466744      0.00000000    0.00000000    0.00000000
    1   -5.66501141    2.88308138    1.87091725     -0.45332209   -4.59624710   -8.55374208      0.00000000    0.00000000    0.00000000
    1   -6.47276595    3.74854724    0.47300680     -5.77369421    2.04421044   -9.00501493      0.00000000    0.00000000    0.00000000
    8   -6.82646739    4.32514651    5.15040121      7.80058475   -4.96391609   -7.70169635      0.00000000    0.00000000    0.00000000
    1   -7.48687860    3.57524834    5.11198678     -4.27224639    3.87256854    1.96458399      0.00000000    0.00000000    0.00000000
    1   -5.83341603    4.40536468    5.23632085     -2.04147362    5.13219230    5.95234887      0.00000000    0.00000000    0.00000000
    8    3.25422530   -6.90112537   -6.06045447    -40.24375860  -10.83959152  -89.55910354      0.00000000    0.00000000    0.00000000
    1    3.78916368   -6.10653174   -5.77335367    -10.22943147   -6.52136537    2.92615809      0.00000000    0.00000000    0.00000000
    1    2.43674395   -7.37451330   -5.73243621     -3.26038682   -0.01706573   -5.27104842      0.00000000    0.00000000    0.00000000
    8    4.92089693    3.11762148    3.58182731     35.39526711  -27.35784827  -79.87780888      0.00000000    0.00000000    0.00000000
    1    3.95645785    3.38185945    3.58385473     -0.84680220    4.53314751    5.85831291      0.00000000    0.00000000    0.00000000
    1    5.79816833    3.59753047    3.57489066     -7.29245828  -27.01408691   11.45377047      0.00000000    0.00000000    0.00000000
    8    2.61051128   -3.71917282    3.01006385   -446.69177762 -796.27913724  230.07282059      0.00000000    0.00000000    0.00000000
    1    3.46139199   -4.16043227    3.29512126      2.78070415    7.80610362   -4.81331487      0.00000000    0.00000000    0.00000000
    1    1.67121030   -4.01383926    2.83441404      4.65340975   -0.12427968   -2.96159590      0.00000000    0.00000000    0.00000000
    8    7.42185255    7.99255245    5.88248432     30.93377874   -6.68291355   22.80368829      0.00000000    0.00000000    0.00000000
    1    7.25954793    8.97555379    5.96811696      4.80377921   -2.23059830   14.75215962      0.00000000    0.00000000    0.00000000
    1    8.22189246    7.39264364    5.88578423      1.63369724   -6.46116497    0.31157352      0.00000000    0.00000000    0.00000000
    8    5.53699914    2.94465143    1.11697515    101.78714246   40.49756332 1705.48910705      0.00000000    0.00000000    0.00000000
    1    4.68023572    2.49089379    0.87197256     -5.49623682   29.09636000  -24.17468592      0.00000000    0.00000000    0.00000000
    1    5.81153712    3.67160781    1.74636105     -7.97164420  -23.42629180  -13.53323394      0.00000000    0.00000000    0.00000000
    8   -4.67789518   -0.32593224    6.48378234     93.36799264 -428.14074662 -168.76772386      0.00000000    0.00000000    0.00000000
    1   -4.23387332   -1.11046493    6.05098013      2.41301792    0.94544756    2.94643250      0.00000000    0.00000000    0.00000000
    1   -5.23475770   -0.17483959    7.30050593      1.62561056   15.61974097    6.64434094      0.00000000    0.00000000    0.00000000
    8    4.44666227    3.26935076    5.85257808    216.97850256 -373.90491157   86.54485332      0.00000000    0.00000000    0.00000000
    1    5.41343966    3.41568635    6.06208776     13.27675409   -0.03981693   -0.61157608      0.00000000    0.00000000    0.00000000
    1    3.74431072    2.61005816    6.12090518     14.11569886  -35.72466430   25.85822868      0.00000000    0.00000000    0.00000000
    8    2.77446557    5.86611879   -6.47737535    194.60145956 -172.25178876 -480.89223352      0.00000000    0.00000000    0.00000000
    1    2.51355789    5.63947387   -5.53901268      5.17971337  -11.57388972   46.57064252      0.00000000    0.00000000    0.00000000
    1    2.34296602    5.80904080   -7.37766168     -2.19423687   -9.78920330    3.90934336      0.00000000    0.00000000    0.00000000
    8   -2.06726068    6.04009529    8.23161386      5.00459103    0.89641491    9.35745244      0.00000000    0.00000000    0.00000000
    1   -2.92123864    5.52548321    8.30818267     -0.79175168   -3.38119067   -3.70001786      0.00000000    0.00000000    0.00000000
    1   -1.09353089    5.81599516    8.19164567     -4.79313948   -1.66140790   -0.42927677      0.00000000    0.00000000    0.00000000
    8    7.24927131    1.21783503    4.70680730   -140.44793885  198.89202834 -663.53475735      0.00000000    0.00000000    0.00000000
    1    7.62544718    1.65749915    3.89156934     -6.23318032   -3.19871034    7.73529638      0.00000000    0.00000000    0.00000000
    1    7.29662494    0.30866626    5.12019024      0.72491424   12.81921842   12.36306817      0.00000000    0.00000000    0.00000000
    8    5.90200013    1.02636770    8.23237868    -46.38309043   -9.17775312   31.38246863      0.00000000    0.00000000    0.00000000
    1    6.06924214    1.90157251    8.68626461      1.89975737    3.54923972    0.08037580      0.00000000    0.00000000    0.00000000
    1    6.04776876    0.06206472    8.45337137     -0.70271240    3.76701968    3.85686504      0.00000000    0.00000000    0.00000000
    8    0.90013402   -1.36881043    6.96593261    -80.81027814 -602.17827980  473.62751956      0.00000000    0.00000000    0.00000000
    1    1.43062516   -1.93718046    7.59482231     -6.90954437    7.91325521    0.01570435      0.00000000    0.00000000    0.00000000
    1    0.11165088   -1.50328593    6.36578568      6.99263154   -3.55465258    4.81257309      0.00000000    0.00000000    0.00000000
    8    9.57511524   -6.79624435   -6.66285596     -6.84138646   -4.69799081   -1.66798851      0.00000000    0.00000000    0.00000000
    1   -8.44436657   -7.22678547   -6.72187989      1.70717533    2.21893587   -0.21417494      0.00000000    0.00000000    0.00000000
    1    8.84034673   -6.53698588   -7.28964535     -0.85205059   -3.16810501   -3.07702442      0.00000000    0.00000000    0.00000000
    8   -8.40722128   -8.37216031    7.33250454      2.25398325    4.09628673    1.53447741      0.00000000    0.00000000    0.00000000
    1   -8.17844323   -9.31376512    7.57950391      0.22697535   -1.58057713   -2.37494126      0.00000000    0.00000000    0.00000000
    1   -8.02958969   -7.67695468    6.72090761      1.85575124   -3.64906284    1.93795131      0.00000000    0.00000000    0.00000000
    8   -4.70336066   -5.81980115    5.80772527      1.29052888   -0.53200226   -2.40196991      0.00000000    0.00000000    0.00000000
    1   -4.81034567   -6.79927133    5.63696813     -0.13412282   -3.11343304    1.87815494      0.00000000    0.00000000    0.00000000
    1   -5.29628910   -5.01518413    5.77619059      2.14072460   -0.36605909    2.89672432      0.00000000    0.00000000    0.00000000
    8    2.19292631    2.69799078    5.54940949    -69.32327084  -41.77119160  -28.00745136      0.00000000    0.00000000    0.00000000
    1    1.31513130    2.94123171    5.96205382     -5.69126833   10.54018057    7.15511550      0.00000000    0.00000000    0.00000000
    1    3.12201782    3.06747073    5.56492118      1.14541895   31.88729074  -20.66858385      0.00000000    0.00000000    0.00000000
    8    2.26706249    0.45609926    0.40533665   -367.82903710  101.18048239   95.92922350      0.00000000    0.00000000    0.00000000
    1    2.60519844    1.30952554    0.00873455      4.47405932    1.24198002   -4.53779843      0.00000000    0.00000000    0.00000000
    1    1.43502455    0.16130405    0.87520312     -3.12808889    3.99036870    6.87236156      0.00000000    0.00000000    0.00000000
    8    1.66822003   -6.80633770   -0.39457304      4.42605387   15.08104456   -1.55496742      0.00000000    0.00000000    0.00000000
    1    1.33124831   -7.74221077   -0.29181131     -3.52430187    0.63972238    0.30997701      0.00000000    0.00000000    0.00000000
    1    1.76679091   -6.15596475   -1.14774304     -0.51177231   -4.36128634   -0.53255872      0.00000000    0.00000000    0.00000000
    8    2.11216251    3.04557698   -5.81137307    250.95034603   91.90354666 -428.52056262      0.00000000    0.00000000    0.00000000
    1    2.14641238    2.56657586   -4.93424697    -17.94104458   10.56492058   21.43115092      0.00000000    0.00000000    0.00000000
    1    1.45522268    3.63153485   -6.28576780      4.63902900    2.97326902    4.25744355      0.00000000    0.00000000    0.00000000
    8    5.94888848    5.32738881    4.73619880     29.52612248   19.82521342  -15.97604948      0.00000000    0.00000000    0.00000000
    1    6.00024418    6.31757098    4.86607910      0.11710268    5.80317482   11.11553027      0.00000000    0.00000000    0.00000000
    1    6.00230184    4.70011807    3.95925184     -1.16655647   20.99356683   20.20083357      0.00000000    0.00000000    0.00000000
    8    6.12028365    2.94700809   -0.70690059    567.56053607   25.84249135-1442.21194576      0.00000000    0.00000000    0.00000000
    1    5.12250596    2.90822119   -0.76077170    -16.65217888   -6.15333688   10.72761704      0.00000000    0.00000000    0.00000000
    1    6.88278185    2.44751158   -1.11807633     -6.81612277    3.88340347    4.01906252      0.00000000    0.00000000    0.00000000
    8   -3.85614579   -3.33098027   -5.45171093     -3.43252487   -7.71244739    0.97880079      0.00000000    0.00000000    0.00000000
    1   -4.28690588   -2.66148484   -6.05684551      3.06761974    7.91264670    1.52106646      0.00000000    0.00000000    0.00000000
    1   -3.85266453   -3.51462542   -4.46874051      2.52988824    2.68346475    1.44636225      0.00000000    0.00000000    0.00000000
    8    3.70114914   -8.47326084    0.80323349    -58.12672482  -66.96522430    2.81153299      0.00000000    0.00000000    0.00000000
    1    3.73158832   -7.50092248    0.57172143      2.34239827    1.96706651   -0.64509859      0.00000000    0.00000000    0.00000000
    1    2.98701104   -9.13958947    1.01766588     -2.63286921    1.56429660    3.62505310      0.00000000    0.00000000    0.00000000
    8    4.17269122    0.13903709   -0.49600503    353.06421729  621.91766526-1377.80793845      0.00000000    0.00000000    0.00000000
    1    4.63118768    0.72197259    0.17475978     23.66222650  -38.06487962  -11.99537478      0.00000000    0.00000000    0.00000000
    1    3.57329344    0.28267524   -1.28343578      5.18013441   -2.64892279   -0.41596681      0.00000000    0.00000000    0.00000000
    8    3.33578396    7.45036250   -5.01140195    184.33082995  483.08712860   22.39004887      0.00000000    0.00000000    0.00000000
    1    3.14758861    8.42186578   -5.15537926      6.68320528    3.77218023   -0.27864526      0.00000000    0.00000000    0.00000000
    1    4.15160680    6.88797037   -4.87680497      5.10020444    5.12302968  -17.09327429      0.00000000    0.00000000    0.00000000
    8    7.44688366    7.96931980   -1.75009404      1.31559890   -6.67290854    9.57166102      0.00000000    0.00000000    0.00000000
    1    7.56487369    8.80269095   -1.21015242     -0.34321937    7.94703598   -2.27256596      0.00000000    0.00000000    0.00000000
    1    8.04989503    7.32966597   -2.22673535     -1.59311100    2.62695912   -5.87874070      0.00000000    0.00000000    0.00000000
    8   -3.10301575   -2.61503179    0.62894725    -24.91394649   11.16613728    4.59682626      0.00000000    0.00000000    0.00000000
    1   -2.25250407   -3.02164909    0.96250238      8.49235649   -2.09333062   -8.54146083      0.00000000    0.00000000    0.00000000
    1   -4.07043708   -2.66631202    0.87680323      2.94725207   -1.63184392    0.03982751      0.00000000    0.00000000    0.00000000
    8   -1.20354322    0.88488064    5.26173553    -90.57212452    9.03981195  -29.80639002      0.00000000    0.00000000    0.00000000
    1   -0.56472307    1.04081820    6.01509994     12.81343224   17.26758531    7.21183735      0.00000000    0.00000000    0.00000000
    1   -1.70383185    1.45785945    4.61260312      1.48560614    4.31193780    1.75041082      0.00000000    0.00000000    0.00000000
    8   -1.07655788    4.95254537    1.61547504   -831.48339243 -117.67141164 -448.96145421      0.00000000    0.00000000    0.00000000
    1   -1.56156400    5.19749467    0.77599443      1.28227274   -1.46093677   -1.51766046      0.00000000    0.00000000    0.00000000
    1   -0.66853794    4.12184036    1.99416978     -8.14902320   -1.24866271   -0.20452240      0.00000000    0.00000000    0.00000000
    8    6.31041383    2.71658845   -4.20661730    192.80339541  370.72104518 -285.68211326      0.00000000    0.00000000    0.00000000
    1    5.96695718    1.77864033   -4.25411025    -13.65154838  -16.69617346   15.69894675      0.00000000    0.00000000    0.00000000
    1    5.90576791    3.63094411   -4.19318625     -2.22905742    2.14999534   -3.82148597      0.00000000    0.00000000    0.00000000
    8    4.07764784   -0.87797870    1.13550495   -384.44778567 -248.34831090 -231.42393811      0.00000000    0.00000000    0.00000000
    1    3.51500896   -1.66486142    1.38890136    -32.51978847   57.10436595   25.16074554      0.00000000    0.00000000    0.00000000
    1    4.13988227    0.08082457    1.41258728     16.09791307  -22.98080622   -0.15206084      0.00000000    0.00000000    0.00000000
    8    8.16425981   -2.94328525   -5.47785301    -65.60668628   22.23321698  -55.73554725      0.00000000    0.00000000    0.00000000
    1    7.27629557   -2.61885140   -5.87977068    -81.31069232   28.47058852  366.33636101      0.00000000    0.00000000    0.00000000
    1    8.93898437   -2.92840184   -5.06880102     16.76691551   -2.09053211    9.09017581      0.00000000    0.00000000    0.00000000
    8    0.76613960    6.76320689   -6.32777609   -230.22001219   89.81116426   12.62045976      0.00000000    0.00000000    0.00000000
    1    1.62936436    7.24989259   -6.19381963     23.23362521   -6.55873456    2.44668980      0.00000000    0.00000000    0.00000000
    1   -0.20431883    6.97461680   -6.21166480      3.96881338    2.76656875   -0.62714943      0.00000000    0.00000000    0.00000000
    8    9.28300802    3.27928822   -2.99672768      1.89831907    5.12710059   -3.45470638      0.00000000    0.00000000    0.00000000
    1    9.14901949    2.37830724   -2.58411718     -1.19900795   -0.10965164   -7.28118811      0.00000000    0.00000000    0.00000000
    1    9.47101697    4.20277555   -2.66237762      0.49007823   -6.45112449    1.03943074      0.00000000    0.00000000    0.00000000
    8    0.95076833    0.32524596    2.53443757    131.36624729  -79.37588133  225.86373551      0.00000000    0.00000000    0.00000000
    1    0.01892947   -0.03715752    2.51688981     -5.82632612  -21.89806073   52.60518700      0.00000000    0.00000000    0.00000000
    1    1.86824935   -0.05478623    2.65179104      7.47282190    1.97938911    2.87869512      0.00000000    0.00000000    0.00000000
    8    8.13885534   -4.64543169    3.48739740   -102.65897634   48.42554853 -325.36560417      0.00000000    0.00000000    0.00000000
    1    8.60041162   -5.38257227    2.99388405     -3.96697205   -2.04620748    3.31315964      0.00000000    0.00000000    0.00000000
    1    7.26094441   -4.17191597    3.41653054      1.42716230   -1.50234663    3.39599646      0.00000000    0.00000000    0.00000000
    8   -9.73815984    6.61130291   -6.50846055      0.38741772    8.30760215    6.68596843      0.00000000    0.00000000    0.00000000
    1    9.08537088    7.34945593   -7.61855079      0.02658315   -2.94044050   -0.78162492      0.00000000    0.00000000    0.00000000
    1   -8.96379396    6.36951520   -5.92377119      0.13389010   -1.06369084   -1.63442787      0.00000000    0.00000000    0.00000000
    8    2.55110058    5.59638568   -4.35613867   -177.04377050 -384.55621645  405.23146121      0.00000000    0.00000000    0.00000000
    1    3.44350726    5.94448647   -4.06908214     -9.24264706    5.68803940   -0.58575263      0.00000000    0.00000000    0.00000000
    1    1.62951621    5.97232249   -4.45268405     -5.50169183    7.74149364   -1.46877155      0.00000000    0.00000000    0.00000000
    8    6.03978239   -7.96410377   -0.97014600     33.77989053  -36.40190875  -72.53858539      0.00000000    0.00000000    0.00000000
    1    6.04799412   -7.02556382   -0.62512125     -7.15801935    4.82294286   15.14605746      0.00000000    0.00000000    0.00000000
    1    5.58309008   -8.81809669   -0.72095292     -2.95367010    7.77936964    4.15061115      0.00000000    0.00000000    0.00000000
    8   -2.76871170    4.66296652    3.64038373      9.05830632   27.54912717 -137.55597424      0.00000000    0.00000000    0.00000000
    1   -1.82057976    4.74548907    3.33345922      1.20678998    9.82368115   -7.79226277      0.00000000    0.00000000    0.00000000
    1   -3.62465457    4.32517600    3.24894315      6.14504029    3.83798983   -0.52679924      0.00000000    0.00000000    0.00000000
    8    0.75397452   -6.15679523    5.69911120   -223.98845516  539.95158561  110.86021701      0.00000000    0.00000000    0.00000000
    1   -0.09968633   -5.69342244    5.46555278     -0.08103976   -1.79017399   -1.68657198      0.00000000    0.00000000    0.00000000
    1    1.72741416   -5.92945189    5.67398009     13.61584677   -5.40661275  -10.75800075      0.00000000    0.00000000    0.00000000
    8    4.39112090   -6.61031378   -4.03282829     48.08137853   20.34353856   82.10611815      0.00000000    0.00000000    0.00000000
    1    5.03055718   -6.31927794   -4.74443675      3.61304379   -8.36970164    9.32309097      0.00000000    0.00000000    0.00000000
    1    3.65546455   -6.18215879   -3.50798760      1.49440983   -6.32693920    1.40357666      0.00000000    0.00000000    0.00000000
    8    5.74322769    0.14332260    1.35118388    621.43517917  926.98023384  400.39043426      0.00000000    0.00000000    0.00000000
    1    5.95724954    1.08938911    1.59400278      7.46441556   12.15138309    3.95828387      0.00000000    0.00000000    0.00000000
    1    5.96527242   -0.47330548    0.59599885     12.01844834  -41.71052938   -8.13757113      0.00000000    0.00000000    0.00000000
    8    0.86515034   -0.02829918   -2.18973424     -3.66143529    6.05356553   10.92107206      0.00000000    0.00000000    0.00000000
    1    1.31694967    0.77136910   -1.79429164      5.00182830   -3.32389998   -2.78381899      0.00000000    0.00000000    0.00000000
    1   -0.03978326   -0.23166713   -2.56350273      0.86463118    0.05250571   -2.65866588      0.00000000    0.00000000    0.00000000
    8   -1.45475659    7.83967809    2.84680758      6.43662265    0.79454420   -0.24918101      0.00000000    0.00000000    0.00000000