 BEGIN_INFO
   #
   # This is a XCRYSDEN-Structure-File
   # aimed for Visualization of Fermi Surface
   #
   # Case: Tight-binding calculation
   #
   # Launch as: xcrysden --xsf HICOLM.XSF
   #
 END_INFO
 # estrutura final
CRYSTAL
PRIMVEC
      19.00000000       0.00000000       0.00000000
       0.00000000      19.00000000       0.00000000
       0.00000000       0.00000000      19.00000000
PRIMCOORD
  300    1
    8    5.29728459   -6.77630445    0.93112624     34.21724639  123.07984620   53.24871492      0.00000000    0.00000000    0.00000000
    1    4.72446110   -5.96504317    0.81405104     -2.32066655    2.78653481    2.70113129      0.00000000    0.00000000    0.00000000
    1    5.30412866   -7.57246453    1.53167792     -4.79272424  -14.49256164    4.23686392      0.00000000    0.00000000    0.00000000
    8    5.54265929    1.17269611   -3.47813980  -2871.23705089 1295.84118100 4758.09380605      0.00000000    0.00000000    0.00000000
    1    5.87882164    0.34315327   -3.82551467     28.64577233 -120.84194478  -86.82968551      0.00000000    0.00000000    0.00000000
    1    5.89117055    2.11495863   -3.27831467     22.65446518   41.63279416  -33.58857750      0.00000000    0.00000000    0.00000000
    8    2.38620850    1.12887645   -7.63555771      9.14503702  -19.85070023  -27.71388788      0.00000000    0.00000000    0.00000000
    1    2.11691563    1.52105899   -8.51418410     -4.89257024    3.75878278    5.47856016      0.00000000    0.00000000    0.00000000
    1    3.19177858    0.65509497   -7.27597472     -3.97232492    1.93426831    9.85616864      0.00000000    0.00000000    0.00000000
    8   -3.19477734    4.07232324    5.76972131    -56.81500945  -67.97439906  203.63174138      0.00000000    0.00000000    0.00000000
    1   -2.41066261    3.50541585    6.01178408      1.57211648    6.98063114    3.28943511      0.00000000    0.00000000    0.00000000
    1   -4.05920814    3.93637098    5.28057212     10.58626310    0.99778641    0.80959492      0.00000000    0.00000000    0.00000000
    8   -2.50080857   -8.01100407   -3.98966473      3.97629347   -5.60153375   -0.76313052      0.00000000    0.00000000    0.00000000
    1   -1.83055984   -7.48897782   -3.46262320     -0.19151531    1.39321898    1.96446852      0.00000000    0.00000000    0.00000000
    1   -3.06438161   -7.84655519   -4.79986977     -1.90159997    2.97086229    0.42989159      0.00000000    0.00000000    0.00000000
    8    0.33105097   -3.60491700   -7.06037290   -133.16748271 -149.55663235  -40.85180542      0.00000000    0.00000000    0.00000000
    1    0.05072338   -4.19930987   -7.81365706     -0.69304405    1.07317998   -0.98503953      0.00000000    0.00000000    0.00000000
    1    0.25179927   -2.63461608   -6.83936811      2.38605557    1.69558698  -12.76598030      0.00000000    0.00000000    0.00000000
    8    3.42253509   -1.49014315    7.31555625     24.06117941  -16.59182485   16.07635523      0.00000000    0.00000000    0.00000000
    1    2.96027813   -2.37458179    7.34821612      5.36204519    1.27857380   -6.50874693      0.00000000    0.00000000    0.00000000
    1    3.15380972   -0.53689349    7.44003589     -9.54450509    4.18030923   -3.73608563      0.00000000    0.00000000    0.00000000
    8   -6.43779227   -0.03319409    4.21802579      1.21153107   -1.73219126   -6.20765482      0.00000000    0.00000000    0.00000000
    1   -6.95493998    0.82073990    4.15483049      1.88634131   -1.99792337    1.04787319      0.00000000    0.00000000    0.00000000
    1   -6.50364472   -0.87512169    4.75184258     -0.38615585    1.78591924    3.30426919      0.00000000    0.00000000    0.00000000
    8    0.50699384    5.25301921    2.34338241   -393.66694924-6062.79782164 4419.10931769      0.00000000    0.00000000    0.00000000
    1   -0.20872957    5.95974785    2.71124742    -43.20225902   -0.90186813    7.94770727      0.00000000    0.00000000    0.00000000
    1    0.32341705    4.42697754    1.81442278     17.93533500   20.20323494  -13.10030352      0.00000000    0.00000000    0.00000000
    8   -3.53016048    5.65887045   -5.21650668     -0.20048965    5.26485396   -6.45680345      0.00000000    0.00000000    0.00000000
    1   -4.46647385    6.00957092   -5.20684575     -0.96897475    0.25936957   -0.32286385      0.00000000    0.00000000    0.00000000
    1   -2.62612601    6.02875217   -5.43111184     -3.69462044   -1.48023175    1.38962000      0.00000000    0.00000000    0.00000000
    8   -5.10925342    0.87905763    1.40917116     29.26051407  -23.24359405   13.10013302      0.00000000    0.00000000    0.00000000
    1   -5.82742333    0.18376109    1.42131990      1.67178507   -0.44619208    2.37596776      0.00000000    0.00000000    0.00000000
    1   -4.43246851    1.22605767    2.05984604      0.08285101   -6.89868735    0.02562502      0.00000000    0.00000000    0.00000000
    8    0.36427364   -7.25842543   -7.36130055     -3.05066425   -8.43354009   -2.58737427      0.00000000    0.00000000    0.00000000
    1   -0.01168571   -6.33216387   -7.36138074      2.99617643   -0.63366411    4.37167023      0.00000000    0.00000000    0.00000000
    1   -0.01056169   -8.18673206   -7.35593137      3.64434160   -2.87244321   -0.42205794      0.00000000    0.00000000    0.00000000
    8   -5.07891001    1.77563522    7.02917043  -1312.55376592 4700.64216753 1248.35839163      0.00000000    0.00000000    0.00000000
    1   -4.05695179    1.49582074    6.89568359     -6.75681635  -22.54171787   -8.04978390      0.00000000    0.00000000    0.00000000
    1   -5.77517873    2.11878138    6.54646435      2.47271773   -4.44616736    1.61430695      0.00000000    0.00000000    0.00000000
    8   -8.54330886   -4.22906420   -2.77751961      0.23159888    0.31908450    0.31056334      0.00000000    0.00000000    0.00000000
    1   -9.41861638   -4.70935806   -2.83127385     -0.48597981    0.88055602    2.84963222      0.00000000    0.00000000    0.00000000
    1   -7.63469715   -4.42731140   -2.40951436      0.62214798   -1.14084895   -0.53277667      0.00000000    0.00000000    0.00000000
    8   -3.82962664   -0.00678309   -5.97984001      5.21338534   -7.18893989    1.05915928      0.00000000    0.00000000    0.00000000
    1   -4.80019212    0.06864715   -5.75600703     -4.88878147    3.63213750    0.49661005      0.00000000    0.00000000    0.00000000
    1   -3.09826825    0.62817858   -6.23107914     -2.34714870    1.46704168   -0.76182015      0.00000000    0.00000000    0.00000000
    8   -8.41820994   -0.03556756   -8.53691442     -2.89503710   -0.07997189    1.47995428      0.00000000    0.00000000    0.00000000
    1   -8.51116298    0.95957630   -8.54915574     -0.62324845    5.75339726    2.27068489      0.00000000    0.00000000    0.00000000
    1   -8.97884454   -0.81496794   -8.81822502      1.53585093    1.45248344    1.39021469      0.00000000    0.00000000    0.00000000
    8    1.76134902   -6.63362634    6.18099847   4950.00831216 1801.29920838 4918.63764121      0.00000000    0.00000000    0.00000000
    1    1.48266233   -6.12066508    6.53558129     40.76493577   51.63272166   80.30770808      0.00000000    0.00000000    0.00000000
    1    2.70558563   -7.09267333    5.51443715     18.19454993   40.22198677  -70.88996134      0.00000000    0.00000000    0.00000000
    8    8.01379986    4.10426995    3.13050107    -17.23034759   -6.69839989   -0.10630415      0.00000000    0.00000000    0.00000000
    1    8.54755516    3.26184460    3.06685303      3.82048895   -1.37253725   -1.81301824      0.00000000    0.00000000    0.00000000
    1    7.44257680    4.64538948    2.50882071     12.59160236    4.25920624   -6.52216266      0.00000000    0.00000000    0.00000000
    8   -3.05764339    4.94037572   -1.56456714      4.57453140   -1.35129150    7.08304430      0.00000000    0.00000000    0.00000000
    1   -2.74831876    5.67160221   -0.95707657     -3.87564181    0.21288434   -6.34022690      0.00000000    0.00000000    0.00000000
    1   -3.04699001    3.93988970   -1.55015922     -0.16672034   -0.75425812   -6.46168984      0.00000000    0.00000000    0.00000000
    8    1.00660087    0.22188083    5.82497934    275.52025593 2378.95436244-1550.91773507      0.00000000    0.00000000    0.00000000
    1    1.60665039    0.34590203    5.01144384      3.37589919   -2.31472443    2.28163866      0.00000000    0.00000000    0.00000000
    1    0.10392606   -0.10464257    5.99935502     11.99768565   -1.79849602   -4.13789607      0.00000000    0.00000000    0.00000000
    8    3.38664173    6.38413415    1.58933897    512.45412858 1890.99761528 -303.65302534      0.00000000    0.00000000    0.00000000
    1    2.86718524    5.54232509    1.63826463     22.08892958 -109.11365540  -28.35201640      0.00000000    0.00000000    0.00000000
    1    4.36053342    6.62168974    1.48440858     32.49996670    8.30997146  -14.10237000      0.00000000    0.00000000    0.00000000
    8   -7.87411454    3.12541641   -0.11490265  -5395.53192673  916.07043193-3940.29936394      0.00000000    0.00000000    0.00000000
    1   -7.87010186    2.35267383   -0.07836556      2.58224055   -6.82625398    4.97378366      0.00000000    0.00000000    0.00000000
    1   -8.40967590    4.12231220   -0.17715618     -5.38704501   -1.16407566   -0.39334205      0.00000000    0.00000000    0.00000000
    8    1.75706595   -1.96060863   -6.61151952    125.47733178  149.24916459   35.93880672      0.00000000    0.00000000    0.00000000
    1    1.73127457   -1.52228597   -7.51143700      1.21440303   -1.17304103    0.24718836      0.00000000    0.00000000    0.00000000
    1    1.07759656   -2.25979683   -5.93812514     11.46735900   -3.00223763   11.09666665      0.00000000    0.00000000    0.00000000
    8    0.36135263   -7.66412804    2.29305184     -5.87343510   -4.20981847  -12.49400283      0.00000000    0.00000000    0.00000000
    1   -0.04790857   -8.56056322    2.46702425      3.47691272    0.70182949    6.56559219      0.00000000    0.00000000    0.00000000
    1    0.02810432   -6.72330602    2.22910721     -0.75664289   -3.88803503    3.99364849      0.00000000    0.00000000    0.00000000
    8   -2.27359513   -8.84847791   -9.41498824     -0.42216692    1.67325241    2.27669338      0.00000000    0.00000000    0.00000000
    1   -3.17006855   -8.70397178    9.20204707      2.03046496   -2.16582894   -1.13431624      0.00000000    0.00000000    0.00000000
    1   -1.60640469   -8.27803357   -8.93375757      0.96896843   -0.11424689   -4.90511228      0.00000000    0.00000000    0.00000000
    8   -7.78157165    7.96598396    1.98577316     -2.50336698    3.74765056   -1.75708917      0.00000000    0.00000000    0.00000000
    1   -8.48832941    7.33449798    1.66944513     -1.11986388    0.14837653    2.29610048      0.00000000    0.00000000    0.00000000
    1   -6.81130247    7.90134967    2.22116028     -0.41657384   -1.24201535    0.90148052      0.00000000    0.00000000    0.00000000
    8   -6.50583341    2.90259986    0.87540354   5435.72246937 -858.33201482 3951.61513138      0.00000000    0.00000000    0.00000000
    1   -5.95892326    2.72391838    1.66076004     -1.07392402   -5.44037422   -7.31219999      0.00000000    0.00000000    0.00000000
    1   -6.89492519    3.37526680    0.21333580    -58.25464511  -15.05694786  -23.94489366      0.00000000    0.00000000    0.00000000
    8   -6.83988282    4.32590105    5.13161895     10.11858802   -5.26017201   -5.52037042      0.00000000    0.00000000    0.00000000
    1   -7.50023182    3.57603447    5.09168010     -1.08118524    3.01808135    2.90354330      0.00000000    0.00000000    0.00000000
    1   -5.84701739    4.40731651    5.21903675     -2.58851497    4.66856947    6.53167534      0.00000000    0.00000000    0.00000000
    8    3.29021682   -6.86966835   -6.06474817    -41.83149432   -9.79069964  -95.61289468      0.00000000    0.00000000    0.00000000
    1    3.82059424   -6.07501402   -5.77500663     -9.04153259   -6.70082138    2.11618145      0.00000000    0.00000000    0.00000000
    1    2.47233861   -7.34534736   -5.74139834     -2.22890494    0.63648982   -4.60874009      0.00000000    0.00000000    0.00000000
    8    4.94739343    3.04826064    3.61787881     75.91294631  -94.54549215 -198.40136500      0.00000000    0.00000000    0.00000000
    1    3.98660529    3.32171383    3.62151249      1.43952197    4.00235819    7.19451386      0.00000000    0.00000000    0.00000000
    1    5.83472027    3.51372668    3.61140188     -4.77019977  -22.79344485   11.12029170      0.00000000    0.00000000    0.00000000
    8    2.87286353   -3.45973220    2.81571486  -2142.28533998-6311.26011671  758.62516227      0.00000000    0.00000000    0.00000000
    1    3.68862919   -3.84928441    3.18161435      0.66010352    9.05921558   -3.37188644      0.00000000    0.00000000    0.00000000
    1    1.89446574   -3.74169109    2.72665100      5.68588587    2.33307939    0.05193071      0.00000000    0.00000000    0.00000000
    8    7.45535209    7.92882924    5.91711064     30.00152873   -8.97078803   24.28742819      0.00000000    0.00000000    0.00000000
    1    7.30143814    8.90879882    6.00833279      4.09232899   -2.59068277   14.37101054      0.00000000    0.00000000    0.00000000
    1    8.25431857    7.32573993    5.91388204      1.23743891   -4.50084640    1.54670269      0.00000000    0.00000000    0.00000000
    8    5.38401260    2.85117473    1.18415231   2497.01527970  666.98244985 3233.60107556      0.00000000    0.00000000    0.00000000
    1    4.51949762    2.44237005    0.89458450     -9.96533244   45.62290718  -52.54710254      0.00000000    0.00000000    0.00000000
    1    5.60004235    3.60684796    1.83742837    -17.37524840  -20.55985514   -8.62744554      0.00000000    0.00000000    0.00000000
    8   -4.63033098    0.14628999    6.60198493   1325.82716918-4704.43398580-1241.13350340      0.00000000    0.00000000    0.00000000
    1   -4.27641622   -0.66246276    6.14331768     -1.83642328    2.25870729   -0.22234147      0.00000000    0.00000000    0.00000000
    1   -5.26867628    0.33450153    7.35264614     -3.47346601   26.14043186    1.92331828      0.00000000    0.00000000    0.00000000
    8    4.37481838    3.80697287    5.58941533   3557.38942436-3945.97943769-1495.14618200      0.00000000    0.00000000    0.00000000
    1    5.26915935    3.89522094    5.89995479     23.43771706    6.70007033   -4.65351988      0.00000000    0.00000000    0.00000000
    1    3.64146897    3.04855811    5.98400044     43.89730866  -49.70289682   76.42043120      0.00000000    0.00000000    0.00000000
    8    2.49442115    5.72025358   -6.63613791   4496.86713843-3640.58524125-1976.50636500      0.00000000    0.00000000    0.00000000
    1    2.35155504    5.57823979   -5.59264268     26.65223431   -7.06482879   53.44139795      0.00000000    0.00000000    0.00000000
    1    2.11830475    5.74479234   -7.41859775     -1.44620126    1.41799484    1.89403322      0.00000000    0.00000000    0.00000000
    8   -2.07178516    6.03241239    8.23561558      2.61037076   -6.03408082   10.03126368      0.00000000    0.00000000    0.00000000
    1   -2.92670826    5.51679208    8.31145789     -3.56160093   -0.77282875   -3.70633161      0.00000000    0.00000000    0.00000000
    1   -1.09875558    5.80655506    8.19717107     -4.91463180    1.21277550   -1.57622850      0.00000000    0.00000000    0.00000000
    8    6.74334291    1.40924866    5.75285122  -4528.92608809 5020.05070078 -704.11939957      0.00000000    0.00000000    0.00000000
    1    7.47667456    1.80291239    4.52204781     -1.41899203   -8.24471260    7.53153510      0.00000000    0.00000000    0.00000000
    1    7.07602163    0.60923605    5.84399963    109.91625495  -14.14799583  -13.54470480      0.00000000    0.00000000    0.00000000
    8    5.91821672    1.05073024    8.21746140    -37.79216556   -8.93331139   45.47961055      0.00000000    0.00000000    0.00000000
    1    6.08185173    1.93992819    8.66868187     33.35211624    8.07659113  -13.41159225      0.00000000    0.00000000    0.00000000
    1    6.06409837    0.09060732    8.44119477      6.37309040   -1.08373537   -4.55088128      0.00000000    0.00000000    0.00000000
    8    0.87614294   -1.29441795    6.82215413   -248.66855657-2395.57554865 1577.59959672      0.00000000    0.00000000    0.00000000
    1    1.37066430   -1.86621585    7.45348717     -0.94012381    6.64935524   -1.63875792      0.00000000    0.00000000    0.00000000
    1    0.06914045   -1.41114865    6.21726727      7.01026073  -10.75558141    1.68696527      0.00000000    0.00000000    0.00000000
    8    9.49575572   -6.91833723   -6.65062524     -7.62823723   -2.74946719   -3.24889210      0.00000000    0.00000000    0.00000000
    1   -8.52193137   -7.12174181   -6.73349869      0.45572490    2.22618107    0.31161012      0.00000000    0.00000000    0.00000000
    1    8.76465129   -6.65233952   -7.27643406     -1.05320839   -0.01363553   -1.71278898      0.00000000    0.00000000    0.00000000
    8   -8.41940400   -8.36942673    7.32134110     -1.12484508    1.86427593    1.83807498      0.00000000    0.00000000    0.00000000
    1   -8.19001842   -9.31233455    7.56842849     -2.09375130   -4.74225296   -1.13398269      0.00000000    0.00000000    0.00000000
    1   -8.04054340   -7.67360676    6.71133977      0.99119625   -1.74624044    0.85769180      0.00000000    0.00000000    0.00000000
    8   -4.70157244   -5.81633740    5.81232469      5.92490440   -1.50748021   -2.74695983      0.00000000    0.00000000    0.00000000
    1   -4.80908356   -6.79537670    5.64230274      0.33790156   -2.78939327    2.00478135      0.00000000    0.00000000    0.00000000
    1   -5.29423751   -5.01079855    5.78173942      1.16375349   -1.67791280    2.25101045      0.00000000    0.00000000    0.00000000
    8    2.28853424    2.77375732    5.48840646    -75.07740636  -90.25941432  -15.38003206      0.00000000    0.00000000    0.00000000
    1    1.41416964    3.00599867    5.91945890     -9.48959736   10.22857140    5.88002707      0.00000000    0.00000000    0.00000000
    1    3.19349039    3.16045990    5.48982303    -45.96134380   39.98363274  -87.00870501      0.00000000    0.00000000    0.00000000
    8    2.39659679    0.37445231    0.37124919  -3769.18443427  686.74809404 1168.18388922      0.00000000    0.00000000    0.00000000
    1    2.75101781    1.22615511   -0.03870833      6.62618832    0.49784905   -0.65626628      0.00000000    0.00000000    0.00000000
    1    1.55814284    0.10686524    0.83566299     -5.85625431    3.87714423    5.59188544      0.00000000    0.00000000    0.00000000
    8    1.65553064   -6.81199365   -0.37775668      4.80759533   15.77357072   -4.84281443      0.00000000    0.00000000    0.00000000
    1    1.31664144   -7.74696594   -0.27383563     -3.82257070    0.11710964    0.65659046      0.00000000    0.00000000    0.00000000
    1    1.75532189   -6.16351124   -1.13314548     -1.18277602   -4.74598130   -0.38981890      0.00000000    0.00000000    0.00000000
    8    1.98152377    2.98238054   -5.70687154   2061.38507390  606.58053921-4560.90511080      0.00000000    0.00000000    0.00000000
    1    2.05435873    2.51771510   -4.80928032    -32.40412141   29.54792482   50.22813941      0.00000000    0.00000000    0.00000000
    1    1.35021487    3.57268669   -6.16863341     10.43234612    8.64741639    5.36902697      0.00000000    0.00000000    0.00000000
    8    5.94835794    5.28927624    4.76462164     98.04516454   78.66463322  -46.11471683      0.00000000    0.00000000    0.00000000
    1    6.00200927    6.27555987    4.90219446      1.09116842    5.06735317   10.23376674      0.00000000    0.00000000    0.00000000
    1    6.00177897    4.66247161    3.98809461     -2.26697198   18.44273456   17.40443979      0.00000000    0.00000000    0.00000000
    8    6.01894315    2.89591703   -0.74945836    846.27895556  161.83031495 -869.94257756      0.00000000    0.00000000    0.00000000
    1    5.02572796    2.85041527   -0.77221202    -26.71466086  -18.70281057   22.26617384      0.00000000    0.00000000    0.00000000
    1    6.77079952    2.37526976   -1.16578502     -6.04715470    2.85078010   -2.50953002      0.00000000    0.00000000    0.00000000
    8   -3.86818538   -3.31356016   -5.45500207      3.50959381   -7.99396673   -0.71314078      0.00000000    0.00000000    0.00000000
    1   -4.29664917   -2.64142465   -6.05985636     -0.28550582    7.18063682    3.54661682      0.00000000    0.00000000    0.00000000
    1   -3.86418779   -3.49869293   -4.47263759      0.37705811    1.86232811    1.51763135      0.00000000    0.00000000    0.00000000
    8    3.67255208   -8.48065274    0.81385154    -58.04823788  -56.16466578   -1.13116063      0.00000000    0.00000000    0.00000000
    1    3.70726225   -7.50862030    0.58286364      1.61634335    6.79542668   -1.31255439      0.00000000    0.00000000    0.00000000
    1    2.95376952   -9.14408424    1.02947109     -5.79771733   -0.48326164    5.70382896      0.00000000    0.00000000    0.00000000
    8    4.06207898    0.09794937   -0.17821666   3495.92950094 4244.85366032-6044.70712691      0.00000000    0.00000000    0.00000000
    1    4.53463034    0.56883443    0.46824496     14.43320159  -49.90334382  -25.67122452      0.00000000    0.00000000    0.00000000
    1    3.43637112    0.22776722   -0.98206883     -2.16479847  -13.39441961    4.95254017      0.00000000    0.00000000    0.00000000
    8    3.33728711    7.34236615   -4.97658747    497.11135764 1164.95491937 -211.44117303      0.00000000    0.00000000    0.00000000
    1    3.15140824    8.31839203   -5.11475835      5.21835141    6.34645910    0.34076481      0.00000000    0.00000000    0.00000000
    1    4.13861807    6.77556629   -4.85200477      9.41784829   13.93531208  -18.52795171      0.00000000    0.00000000    0.00000000
    8    7.43508140    7.97418563   -1.77357257      3.77841053   -1.71085139   10.31514411      0.00000000    0.00000000    0.00000000
    1    7.55238918    8.80930899   -1.23292160     -0.04985978    6.36921499   -3.53121267      0.00000000    0.00000000    0.00000000
    1    8.03593872    7.33673984   -2.25050258     -0.97247022   -0.36371535   -6.02643217      0.00000000    0.00000000    0.00000000
    8   -3.09165349   -2.62476689    0.64082054    -25.68320391   11.58563545    8.77660241      0.00000000    0.00000000    0.00000000
    1   -2.23722422   -3.03075602    0.96931239      7.80198946   -0.95033684   -9.04933087      0.00000000    0.00000000    0.00000000
    1   -4.05735984   -2.67877777    0.89511612      2.24812767   -3.21779175    0.38175093      0.00000000    0.00000000    0.00000000
    8   -1.17603414    0.89780646    5.26556003    -81.10040305   14.40606176  -23.12049918      0.00000000    0.00000000    0.00000000
    1   -0.53783204    1.06090655    6.01524638     11.40320325   14.68378728    1.53446351      0.00000000    0.00000000    0.00000000
    1   -1.67995664    1.46781932    4.61586581     -1.68413946    2.84575236    0.51154076      0.00000000    0.00000000    0.00000000
    8   -1.07978466    4.96034002    1.77202237  -5880.99251669-1095.47987098-2134.57933843      0.00000000    0.00000000    0.00000000
    1   -1.49582003    5.20439975    0.78341360     -1.14907671    1.56808763    0.29137439      0.00000000    0.00000000    0.00000000
    1   -0.60388985    4.21299070    2.07688196    -18.76976076    1.52411661   14.58920048      0.00000000    0.00000000    0.00000000
    8    6.07714968    2.65420393   -4.25714315   1375.78105087 3822.87606985-1945.92213981      0.00000000    0.00000000    0.00000000
    1    5.72660213    1.68467045   -4.33536419    -23.38610860  -51.60547006   45.87563533      0.00000000    0.00000000    0.00000000
    1    5.62101754    3.54442649   -4.29505690      1.89481687    2.70306989   -6.89798012      0.00000000    0.00000000    0.00000000
    8    4.08886043   -1.12255219    1.01081500  -6689.90943282-7236.72960373 1666.26952178      0.00000000    0.00000000    0.00000000
    1    3.44822399   -1.77720262    1.42353414    -79.77374135   94.09059088    5.02316806      0.00000000    0.00000000    0.00000000
    1    4.23043165   -0.08993810    1.34278731     11.69633245  -46.48582477   -2.07756678      0.00000000    0.00000000    0.00000000
    8    6.10443711    3.22564228   -8.79296911  -3874.86016589 1129.45013263-4496.14571476      0.00000000    0.00000000    0.00000000
    1    5.39411311    2.67401528   -8.75494235     36.07903404   44.54902906   49.84153480      0.00000000    0.00000000    0.00000000
    1    6.39547455    4.21102519   -8.54238584     19.68211472  -12.98263298   26.68119171      0.00000000    0.00000000    0.00000000
    8    1.19501751    6.76668453   -6.21940497  -4622.25142581 3665.87698566 1425.48453824      0.00000000    0.00000000    0.00000000
    1    1.99749521    7.12776757   -6.20368397     27.82550527  -15.05136995   -2.00993190      0.00000000    0.00000000    0.00000000
    1    0.15796415    6.93685024   -6.19449651      6.25573603    3.64358651   -5.19997449      0.00000000    0.00000000    0.00000000
    8    9.28861294    3.28713248   -2.97107943      2.94045484    3.97349219    8.80507244      0.00000000    0.00000000    0.00000000
    1    9.15280623    2.38612133   -2.56367713     -0.65366517   -0.99228724   -6.92034458      0.00000000    0.00000000    0.00000000
    1    9.47631936    4.21020708   -2.63249890     -1.54418346   -3.79289892   -4.77090004      0.00000000    0.00000000    0.00000000
    8    0.98855447    0.36391176    2.45521894    291.40247271 -135.78928703  406.98902159      0.00000000    0.00000000    0.00000000
    1    0.06200779   -0.00879373    2.46479567     -5.43180673  -29.09306935   59.00425785      0.00000000    0.00000000    0.00000000
    1    1.91171952   -0.00644361    2.54964694      6.84575852    1.19343800   -0.74620938      0.00000000    0.00000000    0.00000000
    8    8.27209771   -4.48184689    3.59536915  -1878.30444530 1510.17704429-4560.84638731      0.00000000    0.00000000    0.00000000
    1    8.68605636   -5.31273726    3.10436724     -4.95959040   -1.21459109    8.24259618      0.00000000    0.00000000    0.00000000
    1    7.34600353   -4.09960111    3.52052531      1.47071748   -3.66361468    2.18910431      0.00000000    0.00000000    0.00000000
    8   -9.45508724    6.93907408   -6.58258043     -2.48434737    7.20458965   -4.62478565      0.00000000    0.00000000    0.00000000
    1    9.37624766    7.01843290   -7.57764693     -2.68868707   -5.78456877    3.11854621      0.00000000    0.00000000    0.00000000
    1   -8.69496864    6.67223720   -5.98915799     -1.73789264   -4.16830488   -1.30270974      0.00000000    0.00000000    0.00000000
    8    2.62341958    5.58940567   -4.55963151   -416.43952542-1193.04071867  727.37737877      0.00000000    0.00000000    0.00000000
    1    3.52001416    5.94084069   -4.27344366    -17.62562857    4.49559662    2.87316243      0.00000000    0.00000000    0.00000000
    1    1.70919066    5.97049954   -4.65908533     -8.34364045   19.27504764    2.00048243      0.00000000    0.00000000    0.00000000
    8    6.03485775   -7.95837261   -0.98691633     36.16814684  -47.51313366  -80.51597138      0.00000000    0.00000000    0.00000000
    1    6.03883974   -7.02468815   -0.63954468     -6.93612579    3.45670165   14.45033010      0.00000000    0.00000000    0.00000000
    1    5.57569551   -8.81439927   -0.74117386     -5.67260558    7.45606806    4.03134933      0.00000000    0.00000000    0.00000000
    8   -2.78801103    4.64426001    3.66749125     15.53006022   38.11354450 -181.54382713      0.00000000    0.00000000    0.00000000
    1   -1.84165279    4.73096981    3.35869856      0.95484373   10.13796988   -9.52675288      0.00000000    0.00000000    0.00000000
    1   -3.64213349    4.30426517    3.27597451      6.63924677    4.55762399   -0.29293790      0.00000000    0.00000000    0.00000000
    8    0.30052500   -7.04367896    5.45286987  -6948.84449131-1936.70766236-3451.72131503      0.00000000    0.00000000    0.00000000
    1   -0.56988561   -6.04452702    5.64933925      4.70071739   -8.86357763   -1.03067810      0.00000000    0.00000000    0.00000000
    1    1.24626378   -6.48261867    6.03793914    287.88959609 -172.50833547   -2.77022292      0.00000000    0.00000000    0.00000000
    8    4.39852766   -6.61891698   -4.01736463     42.80613129   21.51280629   85.48083918      0.00000000    0.00000000    0.00000000
    1    5.03914449   -6.32988350   -4.72782586      4.12302155   -6.98939173    5.23020289      0.00000000    0.00000000    0.00000000
    1    3.66085655   -6.18936326   -3.49685240      2.26584798   -5.39653289    0.38985362      0.00000000    0.00000000    0.00000000
    8    5.62012816   -0.51895411    1.34469491   1656.97522846 4250.27220095 6059.98436073      0.00000000    0.00000000    0.00000000
    1    5.91764481    0.63364711    1.39147033     17.07433273   -3.51920894   -1.56733045      0.00000000    0.00000000    0.00000000
    1    5.85183532   -0.99731374    0.51618066     33.88644847   16.66016234   -2.50885554      0.00000000    0.00000000    0.00000000
    8    0.86617386   -0.03048099   -2.18981526     -3.36212068    7.76859101    8.44695775      0.00000000    0.00000000    0.00000000
    1    1.31919451    0.76803846   -1.79426274      4.25202694   -3.22805276   -2.93475914      0.00000000    0.00000000    0.00000000
    1   -0.03899470   -0.23175664   -2.56426963     -0.39921942   -0.64738031   -0.79854241      0.00000000    0.00000000    0.00000000
    8   -1.47020019    7.83317862    2.85989118      4.91289889   -2.56479313   -6.61745020      0.00000000    0.00000000    0.00000000