 BEGIN_INFO
   #
   # This is a XCRYSDEN-Structure-File
   # aimed for Visualization of Fermi Surface
   #
   # Case: Tight-binding calculation
   #
   # Launch as: xcrysden --xsf HICOLM.XSF
   #
 END_INFO
 # estrutura final
CRYSTAL
PRIMVEC
      19.00000000       0.00000000       0.00000000
       0.00000000      19.00000000       0.00000000
       0.00000000       0.00000000      19.00000000
PRIMCOORD
  300    1
    8    5.29777431   -6.77694548    0.92945813     42.50469162  101.00920031   47.35180128      0.00000000    0.00000000    0.00000000
    1    4.72488351   -5.96554512    0.81372606     -1.71381244   15.24833097    8.18324345      0.00000000    0.00000000    0.00000000
    1    5.30426826   -7.57239864    1.53541049     -5.51097481  -13.53394329    4.57531580      0.00000000    0.00000000    0.00000000
    8    5.56224873    1.19032471   -3.55440150  -6804.17421566 2403.4014845410032.90798509      0.00000000    0.00000000    0.00000000
    1    5.94071584    0.31266166   -3.84840601     34.53107740 -202.64435543 -123.15556062      0.00000000    0.00000000    0.00000000
    1    5.92822275    2.09599111   -3.34039703     20.26524072   50.06884622  -37.82396418      0.00000000    0.00000000    0.00000000
    8    2.38633834    1.12902650   -7.63528284     -2.60587657  -22.63547791  -20.50735912      0.00000000    0.00000000    0.00000000
    1    2.11497744    1.52038170   -8.51458476      2.48515497    6.54727867    4.18443007      0.00000000    0.00000000    0.00000000
    1    3.19052047    0.65534920   -7.27627204      1.43228452    7.27686789    7.48431560      0.00000000    0.00000000    0.00000000
    8    4.18264482   -4.45929804    1.57671301    159.86837551 -142.94237624 -161.85928253      0.00000000    0.00000000    0.00000000
    1    3.67625749   -4.67981097    1.98660946     -4.88419001    4.59858144   -1.32947662      0.00000000    0.00000000    0.00000000
    1    4.06584347   -3.87748570    1.28912562     -1.97257968    2.64860355    2.29409889      0.00000000    0.00000000    0.00000000
    8   -2.50082607   -8.01094997   -3.98968554      3.12626197   -3.79573495   -2.66983437      0.00000000    0.00000000    0.00000000
    1   -1.83028236   -7.48910010   -3.46241901     -0.40399285    1.90166781    1.46763448      0.00000000    0.00000000    0.00000000
    1   -3.06480530   -7.84688898   -4.79899268     -1.91715150    2.95401037    0.25887057      0.00000000    0.00000000    0.00000000
    8    0.33365046   -3.60493090   -7.05924215   -133.02278050 -154.94064093  -42.73485074      0.00000000    0.00000000    0.00000000
    1    0.05143619   -4.19808207   -7.81322653     -1.82657602    0.57050700   -0.25282023      0.00000000    0.00000000    0.00000000
    1    0.25148983   -2.63292719   -6.83918571      1.08754576    2.09484495  -10.95210378      0.00000000    0.00000000    0.00000000
    8    3.42236084   -1.49009665    7.31538794     -5.77316549  -24.80177960   46.31956826      0.00000000    0.00000000    0.00000000
    1    2.96008180   -2.37623121    7.34749848     12.12980593   -6.06728044  -28.00680577      0.00000000    0.00000000    0.00000000
    1    3.15513955   -0.53449420    7.43941338     -2.86291227   17.71421900  -11.99190238      0.00000000    0.00000000    0.00000000
    8   -6.43781167   -0.03312885    4.21806634      2.39255643    2.12423928   -1.57125860      0.00000000    0.00000000    0.00000000
    1   -6.95528732    0.82017959    4.15443344      1.19057859   -1.57723891    0.04314693      0.00000000    0.00000000    0.00000000
    1   -6.50323121   -0.87588890    4.75233305      0.15322461   -1.50829321    3.23125209      0.00000000    0.00000000    0.00000000
    8    0.36239320    5.29905786    2.31106453  60187.29198123 5807.1908760935975.83432360      0.00000000    0.00000000    0.00000000
    1   -0.25422598    6.02239432    2.62176062    -54.07478149   -2.41725650    4.76854355      0.00000000    0.00000000    0.00000000
    1    0.28336878    4.48355301    1.73776462     16.44690110   35.02640645  -29.65514062      0.00000000    0.00000000    0.00000000
    8   -3.53015929    5.65885929   -5.21641660      1.63384634    7.06350420   -4.70071176      0.00000000    0.00000000    0.00000000
    1   -4.46661173    6.00947411   -5.20673356      1.01563034   -0.39775374   -0.66622956      0.00000000    0.00000000    0.00000000
    1   -2.62610972    6.02794453   -5.43191127     -3.81933856   -2.19425982    0.45714876      0.00000000    0.00000000    0.00000000
    8   -5.10955241    0.87906077    1.40894786     10.60879203   -0.73195824    4.63719092      0.00000000    0.00000000    0.00000000
    1   -5.82770020    0.18330148    1.42113363      1.44704284   -0.40673034    2.26475567      0.00000000    0.00000000    0.00000000
    1   -4.43323956    1.22616842    2.05862800     -1.06637844   -7.03178385    0.56425766      0.00000000    0.00000000    0.00000000
    8    0.36436395   -7.25843741   -7.36118470     -2.44895165   -7.15319942   -2.82045620      0.00000000    0.00000000    0.00000000
    1   -0.01059157   -6.33141201   -7.36193840      1.73808194   -0.91857063    4.31126433      0.00000000    0.00000000    0.00000000
    1   -0.00992253   -8.18572198   -7.35694504      2.98630101   -2.67805979    0.36147699      0.00000000    0.00000000    0.00000000
    8   -4.98795022    1.70547722    7.06135818      2.24753486    5.04778663   -1.18493548      0.00000000    0.00000000    0.00000000
    1   -4.04626115    1.42828150    6.87069901      1.22535014   -2.60989507   -3.47723552      0.00000000    0.00000000    0.00000000
    1   -5.75998918    2.04644967    6.52501781      0.36009370   -1.60337657    2.85632760      0.00000000    0.00000000    0.00000000
    8   -8.54327954   -4.22909643   -2.77757393     -0.44830879    0.50029362    0.98495980      0.00000000    0.00000000    0.00000000
    1   -9.41818568   -4.71039917   -2.83098863     -0.96239279    0.21940895    2.66366509      0.00000000    0.00000000    0.00000000
    1   -7.63464599   -4.42715404   -2.40998007      0.44265398   -0.49297179   -0.28100937      0.00000000    0.00000000    0.00000000
    8   -3.82958111   -0.00670557   -5.97989097      3.16390387   -6.25811322   -0.92902283      0.00000000    0.00000000    0.00000000
    1   -4.80114765    0.06785552   -5.75524668     -5.61534722    4.64995927    1.60452293      0.00000000    0.00000000    0.00000000
    1   -3.09861180    0.62781093   -6.23096918     -2.80826563    2.09577449    0.05229912      0.00000000    0.00000000    0.00000000
    8   -8.41819887   -0.03569354   -8.53690625     -6.63914003    3.02625965    4.80378074      0.00000000    0.00000000    0.00000000
    1   -8.51259796    0.95976637   -8.54768415      3.05263904    3.59727200   -0.38595225      0.00000000    0.00000000    0.00000000
    1   -8.97884833   -0.81446486   -8.81824944      2.41054649   -0.38546277    0.54402917      0.00000000    0.00000000    0.00000000
    8   -2.56382339    3.77079045    5.77469107   -135.48321436  399.97017027    7.58820804      0.00000000    0.00000000    0.00000000
    1   -2.78965933    3.97467844    6.15099046      4.60141607    4.47087826   -5.14007482      0.00000000    0.00000000    0.00000000
    1   -2.59680446    3.65223639    5.33540665     -1.54505790    3.67998737   -2.85128704      0.00000000    0.00000000    0.00000000
    8    8.01390443    4.10452331    3.13034277    -13.67107487   -3.70957128   -1.76826555      0.00000000    0.00000000    0.00000000
    1    8.54771342    3.26127750    3.06747385     -0.75382189   -2.45468717    1.06513975      0.00000000    0.00000000    0.00000000
    1    7.44395712    4.64298346    2.50970852     12.15586257    2.80774806   -5.30827548      0.00000000    0.00000000    0.00000000
    8   -3.05770343    4.94036918   -1.56461103      3.49877001   -0.51453212    5.70043008      0.00000000    0.00000000    0.00000000
    1   -2.74714040    5.67207130   -0.95787393     -3.14030359   -0.60013879   -4.76031809      0.00000000    0.00000000    0.00000000
    1   -3.04613699    3.94055519   -1.55027937     -0.42624406   -0.58299506   -5.94163697      0.00000000    0.00000000    0.00000000
    8    1.02890070    0.18741203    5.83821166    539.05449088 3856.98109034-2598.25274684      0.00000000    0.00000000    0.00000000
    1    1.60229704    0.31740144    5.02933185      4.39462830   -1.75413242    1.73403721      0.00000000    0.00000000    0.00000000
    1    0.09951161   -0.13560980    6.01670613     14.28878311   -0.04258717    4.24135008      0.00000000    0.00000000    0.00000000
    8    3.39633043    6.36013411    1.57993270   -809.69511572 3257.76874121 -409.29287543      0.00000000    0.00000000    0.00000000
    1    2.86562989    5.51620368    1.65806906     37.05278311  -99.20071453  -14.63721637      0.00000000    0.00000000    0.00000000
    1    4.36435505    6.59573747    1.49399526     34.35212213    9.11009183  -13.70796844      0.00000000    0.00000000    0.00000000
    8   -7.39024214    3.56176910   -0.23127967  ******************************************      0.00000000    0.00000000    0.00000000
    1   -7.52134295    2.57069510   -0.20798511     21.70580410   -3.75381544   23.39499433      0.00000000    0.00000000    0.00000000
    1   -7.98258527    4.36417468   -0.30364552    -17.19150735    0.72028546   -3.94644073      0.00000000    0.00000000    0.00000000
    8    1.75467154   -1.96059108   -6.61257431    129.26159640  154.78085073   28.86467429      0.00000000    0.00000000    0.00000000
    1    1.73064163   -1.52351891   -7.51166077     -1.48567563   -0.18020895    4.35286620      0.00000000    0.00000000    0.00000000
    1    1.07798116   -2.25835181   -5.93922784     10.73511322   -1.95908911   11.83022178      0.00000000    0.00000000    0.00000000
    8    0.36119475   -7.66409211    2.29316873     -4.79100071   -2.49246251   -0.91129375      0.00000000    0.00000000    0.00000000
    1   -0.04615052   -8.56082436    2.46611050      3.16719659   -0.77283582    2.71397239      0.00000000    0.00000000    0.00000000
    1    0.02860204   -6.72319797    2.22940376     -1.00069503   -2.32577098   -0.00872617      0.00000000    0.00000000    0.00000000
    8   -2.27301080   -8.84821234   -9.41540539      0.88103603    1.67492068    2.14831790      0.00000000    0.00000000    0.00000000
    1   -3.18095134   -8.71667528    9.18624475      0.50659717    1.88824326   -0.76541497      0.00000000    0.00000000    0.00000000
    1   -1.60791157   -8.27688411   -8.93457793     -0.14895045    1.62866087   -4.85068664      0.00000000    0.00000000    0.00000000
    8   -7.78159134    7.96590823    1.98580593      0.05843681    4.71821084   -0.87768469      0.00000000    0.00000000    0.00000000
    1   -8.48893998    7.33367698    1.66972144     -0.52231629    0.44500646    1.17139809      0.00000000    0.00000000    0.00000000
    1   -6.81171582    7.90111562    2.22056109     -2.81078141   -4.05928433    0.46611721      0.00000000    0.00000000    0.00000000
    8   -6.67825194    3.14786413    0.72337330  ******************************************      0.00000000    0.00000000    0.00000000
    1   -6.06729703    3.08142461    1.51221799     -3.15873926   -0.24352210   -8.05284735      0.00000000    0.00000000    0.00000000
    1   -6.93779358    3.86144526    0.07268655   -174.79056399 -136.40331897 -129.67156245      0.00000000    0.00000000    0.00000000
    8   -6.83998359    4.32587397    5.13170435      8.86484404   -4.14619025   -3.23890626      0.00000000    0.00000000    0.00000000
    1   -7.50006573    3.57573550    5.09233763     -3.87777335    3.01377111    1.66239594      0.00000000    0.00000000    0.00000000
    1   -5.84715167    4.40647313    5.21977652      3.13040748    2.07125389    3.58936905      0.00000000    0.00000000    0.00000000
    8    3.28962705   -6.87054320   -6.06334260    -44.52990241   -7.21643376  -96.96743794      0.00000000    0.00000000    0.00000000
    1    3.82278731   -6.07658545   -5.77121897     -8.25213326   -8.29617409    2.58239064      0.00000000    0.00000000    0.00000000
    1    2.47155004   -7.34610219   -5.73998283     -1.16691511   -1.76501955   -2.70829113      0.00000000    0.00000000    0.00000000
    8    4.94700860    3.04778763    3.61983056     36.07836092  -37.77395721  -65.13536034      0.00000000    0.00000000    0.00000000
    1    3.98573710    3.32332348    3.62220872      0.55940957    5.53922618    3.39184132      0.00000000    0.00000000    0.00000000
    1    5.82986295    3.51738749    3.61665662     -2.45802923  -23.53736686    7.92816174      0.00000000    0.00000000    0.00000000
    8    2.86966034   -3.30660995    2.87956684  ****************************12921.19511289      0.00000000    0.00000000    0.00000000
    1    3.73101240   -3.73056157    3.15939452      8.77317328   20.13577248   -1.41150114      0.00000000    0.00000000    0.00000000
    1    1.93667813   -3.62107305    2.70456764      6.22713412    5.06197120    1.22781448      0.00000000    0.00000000    0.00000000
    8    7.45456882    7.92912014    5.91724822     30.77846498   -8.62406820   24.84900076      0.00000000    0.00000000    0.00000000
    1    7.29583472    8.91207253    6.00985199      3.74771188   -2.32427883   14.81583360      0.00000000    0.00000000    0.00000000
    1    8.25252437    7.32643674    5.91501380     -0.48415797   -4.73688472    1.68054928      0.00000000    0.00000000    0.00000000
    8    5.33604925    2.87113055    1.14758199   5438.11695079 1933.89930403 6622.89237416      0.00000000    0.00000000    0.00000000
    1    4.49593115    2.42222476    0.84319452    -14.63470932   56.59013240  -74.99960860      0.00000000    0.00000000    0.00000000
    1    5.57023330    3.59550248    1.79597223    -14.90981157  -19.13598181   -6.29006727      0.00000000    0.00000000    0.00000000
    8   -1.94713118    1.84875015    6.28398107  ************** 7461.46052657 4405.34319417      0.00000000    0.00000000    0.00000000
    1   -1.30748542    1.28106379    5.74000619     -0.55832807 -170.79048449 -200.48429012      0.00000000    0.00000000    0.00000000
    1   -2.24687105    2.18617712    7.07183671     17.53457389   -1.44747872   -0.65317194      0.00000000    0.00000000    0.00000000
    8    4.24862771    3.78568101    5.72857787  18903.87607682**************-6087.59245635      0.00000000    0.00000000    0.00000000
    1    5.21317649    3.95891854    5.92757976     27.30480219   17.52499878   -4.29205497      0.00000000    0.00000000    0.00000000
    1    3.56193347    3.12044328    6.02162121     29.01496925  -46.18491513   98.15951449      0.00000000    0.00000000    0.00000000
    8    2.47803415    5.86966584   -6.50521256  32296.42637699**************-5309.60108628      0.00000000    0.00000000    0.00000000
    1    2.24269482    5.65821810   -5.55659681     40.01725705  -14.83570754   39.19492837      0.00000000    0.00000000    0.00000000
    1    2.01625153    5.81394512   -7.39043485     -8.91732930    4.10510611   12.27046900      0.00000000    0.00000000    0.00000000
    8   -2.07200395    6.03241430    8.23551501     -3.15184749   -9.43810806    6.14772307      0.00000000    0.00000000    0.00000000
    1   -2.92634487    5.51818802    8.31061271     -2.80359808    2.30182376    0.42688640      0.00000000    0.00000000    0.00000000
    1   -1.09835815    5.80781994    8.19628167      0.07026045    2.75059426   -2.66035822      0.00000000    0.00000000    0.00000000
    8    7.61959873    0.74377840    4.90303116  29879.15998377****************************      0.00000000    0.00000000    0.00000000
    1    7.96782864    1.18913646    4.07825612    -12.21672332    3.92454800    7.20430424      0.00000000    0.00000000    0.00000000
    1    7.67814304   -0.16917130    5.30679759     -7.94365726    5.54793343   -0.84850088      0.00000000    0.00000000    0.00000000
    8    5.91813448    1.05154667    8.21736281    -24.01735483  -17.79890926   -0.20457525      0.00000000    0.00000000    0.00000000
    1    6.08622201    1.92816752    8.66819345     13.16455556    6.44979987    4.41827724      0.00000000    0.00000000    0.00000000
    1    6.06391170    0.08792158    8.44128731      4.98136776    4.15926625    0.22012645      0.00000000    0.00000000    0.00000000
    8    0.85300875   -1.26048443    6.80923759   -502.53917903-3889.65350910 2611.34935746      0.00000000    0.00000000    0.00000000
    1    1.37607228   -1.83824430    7.43578840    -13.70467735    7.89658613  -17.27440895      0.00000000    0.00000000    0.00000000
    1    0.07033731   -1.38536199    6.19948611      6.76932350  -11.95213679    0.08388133      0.00000000    0.00000000    0.00000000
    8    9.49580643   -6.92072490   -6.64812126     -6.75958132   -0.57767402   -4.01019864      0.00000000    0.00000000    0.00000000
    1   -8.52762027   -7.12243101   -6.72544484     -0.10080097    1.24537182    0.64427662      0.00000000    0.00000000    0.00000000
    1    8.76503095   -6.65254811   -7.27582626     -1.17018932   -0.35500367   -0.66775776      0.00000000    0.00000000    0.00000000
    8   -8.41930159   -8.36945289    7.32141606     -1.86883292   -1.53562350    2.46409592      0.00000000    0.00000000    0.00000000
    1   -8.19155387   -9.31145981    7.56783369     -0.48802284   -2.50770901   -0.78677653      0.00000000    0.00000000    0.00000000
    1   -8.04067778   -7.67414997    6.71054362     -0.44266006   -1.60270794    1.13919788      0.00000000    0.00000000    0.00000000
    8   -4.70167534   -5.81636320    5.81226399      1.49779917   -1.02885562   -4.27180431      0.00000000    0.00000000    0.00000000
    1   -4.80927715   -6.79579599    5.64168000      0.43607930   -2.62830116    2.72625194      0.00000000    0.00000000    0.00000000
    1   -5.29425181   -5.01146856    5.78120160      0.43246411    1.26358392    2.59072760      0.00000000    0.00000000    0.00000000
    8    2.28786271    2.77492615    5.48917850   -180.65942266 -122.90709251  -22.78097926      0.00000000    0.00000000    0.00000000
    1    1.41558868    3.00864511    5.91868875     -0.63063854    2.20282362    1.94695451      0.00000000    0.00000000    0.00000000
    1    3.21156913    3.15791782    5.48204075    -29.66549642   36.54450654 -105.62801807      0.00000000    0.00000000    0.00000000
    8    2.44033794    0.37365631    0.35124427  -6333.50506431 1743.08109215 1747.12300037      0.00000000    0.00000000    0.00000000
    1    2.79473411    1.21741768   -0.05178963      3.32603757    2.06135841    0.42378410      0.00000000    0.00000000    0.00000000
    1    1.60232443    0.09811986    0.82217857     -4.87662496    4.03468596    3.51765995      0.00000000    0.00000000    0.00000000
    8    1.65550020   -6.81212681   -0.37789075      2.34976271   17.07319280   -0.92532201      0.00000000    0.00000000    0.00000000
    1    1.31677330   -7.74711423   -0.27286253     -3.28272605    0.52751557    0.51721305      0.00000000    0.00000000    0.00000000
    1    1.75525544   -6.16375364   -1.13262737     -0.29505030   -5.47572644   -1.98369360      0.00000000    0.00000000    0.00000000
    8    1.97725393    2.97975421   -5.62589205   7244.30114485 2126.97810424**************      0.00000000    0.00000000    0.00000000
    1    2.01458675    2.50430725   -4.74695952    -51.45317169   41.20491336   56.50775430      0.00000000    0.00000000    0.00000000
    1    1.31920611    3.56487672   -6.09978219     12.07801013    8.17990551    8.01782813      0.00000000    0.00000000    0.00000000
    8    5.94832690    5.28800634    4.76494808     54.74227908   32.04815322  -23.40089165      0.00000000    0.00000000    0.00000000
    1    5.99982830    6.27728880    4.90145757      0.48128140    3.81075875   10.44238689      0.00000000    0.00000000    0.00000000
    1    6.00105297    4.66598679    3.98374399     -3.48557200   19.85466255   14.90177090      0.00000000    0.00000000    0.00000000
    8    6.01438095    2.88685604   -0.73737502   1136.99163641  206.98224157-1107.84505675      0.00000000    0.00000000    0.00000000
    1    5.01529291    2.85250257   -0.76206825    -26.43172238  -20.38671659   25.00006661      0.00000000    0.00000000    0.00000000
    1    6.76236689    2.37309476   -1.15753288     -7.19017362    4.60466563   -2.49947377      0.00000000    0.00000000    0.00000000
    8   -3.86812902   -3.31350783   -5.45505237      4.73695857   -6.05993783   -1.26191149      0.00000000    0.00000000    0.00000000
    1   -4.29784961   -2.64203213   -6.05873013     -0.51107171    7.03396350    2.58954384      0.00000000    0.00000000    0.00000000
    1   -3.86431834   -3.49882119   -4.47239630     -0.25279482    2.56580862    2.05357568      0.00000000    0.00000000    0.00000000
    8    3.67312133   -8.48002814    0.81487546    -62.82029465  -57.69900297    1.56602327      0.00000000    0.00000000    0.00000000
    1    3.70767847   -7.50827220    0.58150350      4.20426182    6.89682225   -2.03766546      0.00000000    0.00000000    0.00000000
    1    2.95622362   -9.14275217    1.03126141     -3.09735870    0.36524844    4.40958734      0.00000000    0.00000000    0.00000000
    8    4.02676223   -0.04626187   -0.11257728    931.9515579428271.77083955**************      0.00000000    0.00000000    0.00000000
    1    4.50002315    0.48899468    0.58705825     27.98003240  -44.57740698  -48.41917114      0.00000000    0.00000000    0.00000000
    1    3.40331398    0.15029976   -0.86930838     -4.39897934  -15.42906052   12.46699152      0.00000000    0.00000000    0.00000000
    8    3.32502736    7.33384961   -4.97526668    605.46729920 1463.71749876 -206.69963603      0.00000000    0.00000000    0.00000000
    1    3.14524439    8.30800627   -5.11187771      7.70191988    4.27567968    0.38649455      0.00000000    0.00000000    0.00000000
    1    4.13627661    6.76281042   -4.84973940     14.26770409   11.46730063  -21.68103103      0.00000000    0.00000000    0.00000000
    8    7.43491878    7.97437765   -1.77350818      4.06636495    1.53063471   16.31320910      0.00000000    0.00000000    0.00000000
    1    7.55317712    8.80841072   -1.23464838     -0.97335754    5.44031971   -3.77303578      0.00000000    0.00000000    0.00000000
    1    8.03759126    7.33487503   -2.25078058     -2.41469016   -1.26945659  -10.54996095      0.00000000    0.00000000    0.00000000
    8   -3.09143326   -2.62484958    0.64086331    -24.27641556   10.87595689    6.16527985      0.00000000    0.00000000    0.00000000
    1   -2.23804524   -3.03038723    0.96833068      8.14459981    0.17433028   -8.43637713      0.00000000    0.00000000    0.00000000
    1   -4.05725195   -2.67896716    0.89430328      3.22634189   -1.89611694    0.60438719      0.00000000    0.00000000    0.00000000
    8   -1.17344583    0.90371685    5.26514986   7871.54510753-9916.70751305**************      0.00000000    0.00000000    0.00000000
    1   -0.53195725    1.06384258    6.01536170     51.42397245    1.06932387   65.53420499      0.00000000    0.00000000    0.00000000
    1   -1.67678515    1.47313120    4.61523973    -22.28499574   14.85291675   -8.01817734      0.00000000    0.00000000    0.00000000
    8   -0.88869407    5.03744375    1.71391359  ******************************************      0.00000000    0.00000000    0.00000000
    1   -1.34508360    5.23503577    0.84636887     -2.29074926    0.98237788   -1.34928113      0.00000000    0.00000000    0.00000000
    1   -0.45573005    4.23968436    2.13354308    -24.05433807    6.30919334   34.70084238      0.00000000    0.00000000    0.00000000
    8    6.03625656    2.58560817   -4.27457229   3229.44043501 9470.77844512-4821.86435119      0.00000000    0.00000000    0.00000000
    1    5.71738868    1.63807205   -4.29615216    -36.17146872  -76.12452238   76.02558092      0.00000000    0.00000000    0.00000000
    1    5.60731865    3.48889417   -4.26722978     -3.73871524   11.84911078   -3.79752742      0.00000000    0.00000000    0.00000000
    8    4.17129207   -0.93226608    1.04294058   1338.68040163**************38601.69025651      0.00000000    0.00000000    0.00000000
    1    3.54725239   -1.65593393    1.33764020    -19.08184144   65.43632670    6.71996556      0.00000000    0.00000000    0.00000000
    1    4.31922537    0.02891671    1.27576846     -1.19830345  -69.04707279   13.87513379      0.00000000    0.00000000    0.00000000
    8    6.18406441    3.16723393   -8.70604893     -2.04418858   -9.95277825  -19.12841605      0.00000000    0.00000000    0.00000000
    1    5.35608324    2.60824431   -8.74825360     -4.54722705    5.07556220    9.27645238      0.00000000    0.00000000    0.00000000
    1    6.39399813    4.12961638   -8.53510451      0.39498402    2.08811523    8.71565750      0.00000000    0.00000000    0.00000000
    8    1.19944292    6.62335766   -6.34120404  **************19109.46550949 4121.00486658      0.00000000    0.00000000    0.00000000
    1    2.08327550    7.07375926   -6.21493127     39.31276292  -30.82804020   -0.76706848      0.00000000    0.00000000    0.00000000
    1    0.23974904    6.87401109   -6.21421317      7.52735260    3.10984538   -2.29849073      0.00000000    0.00000000    0.00000000
    8    9.28855719    3.28714513   -2.97119740      3.67495009   -1.31085821    2.50622381      0.00000000    0.00000000    0.00000000
    1    9.15336585    2.38410826   -2.56350290      0.32341775    0.17571089   -6.07486244      0.00000000    0.00000000    0.00000000
    1    9.47719146    4.20865396   -2.63177912     -3.53090983   -0.48703966   -3.07315700      0.00000000    0.00000000    0.00000000
    8    0.98488269    0.36463021    2.45195549    317.11823160 -147.03982736  429.69808811      0.00000000    0.00000000    0.00000000
    1    0.05651933   -0.00688722    2.46112952     -7.21418547  -29.33066306   59.99438146      0.00000000    0.00000000    0.00000000
    1    1.90889304   -0.00594675    2.54600526      9.09296943    2.86796042   -0.43346266      0.00000000    0.00000000    0.00000000
    8    8.25520009   -4.59163834    3.66173076  -6979.36158417 3127.69397214**************      0.00000000    0.00000000    0.00000000
    1    8.71617696   -5.33349326    3.17478353     -4.98209384    1.38867594    8.13121470      0.00000000    0.00000000    0.00000000
    1    7.37475756   -4.12280912    3.59111168      1.34506463   -6.48583408    4.15291578      0.00000000    0.00000000    0.00000000
    8   -9.45759274    6.93908925   -6.57886463      6.21748077    7.94655375  -11.03616897      0.00000000    0.00000000    0.00000000
    1    9.38704139    7.01540974   -7.56700465     -3.95329169   -3.56827861    4.60549503      0.00000000    0.00000000    0.00000000
    1   -8.69598537    6.67107408   -5.98887492     -5.65971979   -3.10078029    0.29596836      0.00000000    0.00000000    0.00000000
    8    2.62852147    5.60239290   -4.56570961   -471.75227729-1530.45478001 1352.73878754      0.00000000    0.00000000    0.00000000
    1    3.52295033    5.95066369   -4.28522828    -16.35167719    4.51175864   -0.58929310      0.00000000    0.00000000    0.00000000
    1    1.70913201    5.98178694   -4.66939387     -7.19240001   18.03897366    8.85074715      0.00000000    0.00000000    0.00000000
    8    6.03366747   -7.95862783   -0.98611928     34.99079050  -46.96630620  -80.28543088      0.00000000    0.00000000    0.00000000
    1    6.04206422   -7.02132247   -0.63775896     -6.48284238    3.41952096   14.57403392      0.00000000    0.00000000    0.00000000
    1    5.57647177   -8.81330924   -0.74023165     -3.31260033    7.43812443    2.87292887      0.00000000    0.00000000    0.00000000
    8   -2.78663212    4.64460714    3.66950563    -24.81389310   38.07527846 -110.21447015      0.00000000    0.00000000    0.00000000
    1   -1.83927008    4.73100160    3.36127202      5.54952618    7.57337058   -7.47168261      0.00000000    0.00000000    0.00000000
    1   -3.64170460    4.30321608    3.27928831      1.20123945    0.80401566    0.00811489      0.00000000    0.00000000    0.00000000
    8   -0.82470957   -5.47813869    6.35764683      0.43879375   -2.41499925    4.08787244      0.00000000    0.00000000    0.00000000
    1   -1.45970277   -4.85339705    5.96374749     -0.05116099   -1.98777722   -0.78876996      0.00000000    0.00000000    0.00000000
    1    0.16851715   -5.58353369    6.43316507      2.67055919   -0.07539450   -2.36574343      0.00000000    0.00000000    0.00000000
    8    4.39882393   -6.61825892   -4.01878117     41.11059681   23.00368206   88.13514434      0.00000000    0.00000000    0.00000000
    1    5.04103380   -6.32842218   -4.72837851      5.55223437   -6.50642373    6.59774641      0.00000000    0.00000000    0.00000000
    1    3.66115154   -6.18921078   -3.49751170      3.37270657   -7.41831006    1.01411038      0.00000000    0.00000000    0.00000000
    8    5.80432679   -0.26731753    0.94388105  ******************************************      0.00000000    0.00000000    0.00000000
    1    6.03054209    0.68729942    1.13752484      9.91039531   -1.77820485    1.30597529      0.00000000    0.00000000    0.00000000
    1    6.00037934   -0.91853994    0.21077816     64.12266118    7.11498914   79.56315585      0.00000000    0.00000000    0.00000000
    8    0.86617691   -0.03053085   -2.18989900     -4.38733400    4.62292381   12.40743992      0.00000000    0.00000000    0.00000000
    1    1.31948639    0.76809974   -1.79408777      3.89623741   -2.45322684   -3.10222705      0.00000000    0.00000000    0.00000000
    1   -0.03893711   -0.23184190   -2.56434354      0.31217840    0.15839995   -2.27288339      0.00000000    0.00000000    0.00000000
    8   -1.47013396    7.83322089    2.85996312      2.66438817   -2.38686896   -5.03912658      0.00000000    0.00000000    0.00000000