 BEGIN_INFO
   #
   # This is a XCRYSDEN-Structure-File
   # aimed for Visualization of Fermi Surface
   #
   # Case: Tight-binding calculation
   #
   # Launch as: xcrysden --xsf HICOLM.XSF
   #
 END_INFO
 # estrutura final
CRYSTAL
PRIMVEC
      19.00000000       0.00000000       0.00000000
       0.00000000      19.00000000       0.00000000
       0.00000000       0.00000000      19.00000000
PRIMCOORD
  300    1
    8    5.31922855   -6.69556223    0.95882719     17.62025993   70.50620231   20.41348920      0.00000000    0.00000000    0.00000000
    1    4.74634655   -5.88415323    0.84311219     -0.26297125    3.57622969    1.43186190      0.00000000    0.00000000    0.00000000
    1    5.32571155   -7.49103023    1.56476019     -3.39534435  -10.79080215    4.73713234      0.00000000    0.00000000    0.00000000
    8    5.26876892    1.21934392   -3.16048375    -93.34063411    6.68013941  103.73804068      0.00000000    0.00000000    0.00000000
    1    5.64677292    0.34156692   -3.45474375     14.47026681  -22.06819615  -21.96768541      0.00000000    0.00000000    0.00000000
    1    5.63515192    2.12491992   -2.94679675      5.76885622    9.07847625   -0.63304745      0.00000000    0.00000000    0.00000000
    8    2.38783564    1.10347801   -7.65612871      1.55027171  -31.61423835  -24.45060176      0.00000000    0.00000000    0.00000000
    1    2.11648264    1.49483401   -8.53543271      1.17731319    3.15609185    2.58578673      0.00000000    0.00000000    0.00000000
    1    3.19201664    0.62980501   -7.29710971     -0.52758658    4.76331012    2.53495292      0.00000000    0.00000000    0.00000000
    8   -3.22847466    4.03392086    5.86710385    -28.05037485  -31.41061808   68.90610776      0.00000000    0.00000000    0.00000000
    1   -2.44159566    3.46689786    6.11056485      6.00297509    6.40407356    3.11679202      0.00000000    0.00000000    0.00000000
    1   -4.09101666    3.89639586    5.38020185      9.93938507    3.07955552    2.41614140      0.00000000    0.00000000    0.00000000
    8   -2.49568445   -8.01472711   -3.98755702      6.11422989   -4.13318687    2.33895679      0.00000000    0.00000000    0.00000000
    1   -1.82514045   -7.49287911   -3.46028902      0.39215919    2.89493128    1.26439691      0.00000000    0.00000000    0.00000000
    1   -3.05966445   -7.85066311   -4.79686302     -2.24430895    2.17150253    0.91492761      0.00000000    0.00000000    0.00000000
    8    0.27062908   -3.67665243   -7.07914336    -41.91648780  -48.11438493  -13.65630994      0.00000000    0.00000000    0.00000000
    1   -0.01159092   -4.26980643   -7.83312336      1.30551537    3.04882693   -0.65106363      0.00000000    0.00000000    0.00000000
    1    0.18848208   -2.70464543   -6.85909636     -1.08187567   -0.68726285   -8.65968502      0.00000000    0.00000000    0.00000000
    8    3.43935787   -1.50375151    7.32957431     18.09603544  -15.27228333   16.74414714      0.00000000    0.00000000    0.00000000
    1    2.97709487   -2.38989551    7.36165531      4.55902813    3.69632355   -8.01638768      0.00000000    0.00000000    0.00000000
    1    3.17211487   -0.54815651    7.45361031     -7.03482092    5.41305271   -1.94630274      0.00000000    0.00000000    0.00000000
    8   -6.43794372   -0.03374726    4.20673889      0.61315687   -0.91165760  -13.55504471      0.00000000    0.00000000    0.00000000
    1   -6.95541972    0.81956074    4.14310289     -0.52848393   -1.44349809    2.61289047      0.00000000    0.00000000    0.00000000
    1   -6.50336272   -0.87650526    4.74100889     -1.05757804    1.27688973    5.29323360      0.00000000    0.00000000    0.00000000
    8    0.50039508    4.89958642    2.76616675     31.25272122 -123.20279377  112.02048802      0.00000000    0.00000000    0.00000000
    1   -0.11643492    5.62289942    3.07649875     -6.26617034    4.72304607    4.01295514      0.00000000    0.00000000    0.00000000
    1    0.42181108    4.08424442    2.19257475     16.08385289    1.94257269    0.26458414      0.00000000    0.00000000    0.00000000
    8   -3.52976466    5.66220851   -5.22086770      0.67496520    4.05270910   -5.14368684      0.00000000    0.00000000    0.00000000
    1   -4.46621666    6.01282451   -5.21118470      0.25604802    0.03868782    0.53392208      0.00000000    0.00000000    0.00000000
    1   -2.62571466    6.03129251   -5.43636270     -4.84468389   -1.74009471    0.98743617      0.00000000    0.00000000    0.00000000
    8   -5.07292543    0.92444652    1.42050294     32.85449165   40.42327399   10.60859005      0.00000000    0.00000000    0.00000000
    1   -5.79107743    0.22869152    1.43268494     -6.99186223   -0.95437961   -5.96292608      0.00000000    0.00000000    0.00000000
    1   -4.39661043    1.27154652    2.07018494     -2.60512301   -5.20624490    1.61240155      0.00000000    0.00000000    0.00000000
    8    0.36230054   -7.26488645   -7.36217901     -3.13841843   -5.66467689   -1.08659520      0.00000000    0.00000000    0.00000000
    1   -0.01265846   -6.33786245   -7.36292501      2.73390979    0.06026225    5.47028580      0.00000000    0.00000000    0.00000000
    1   -0.01198246   -8.19217245   -7.35794501      3.47205529   -3.76246476    1.07658676      0.00000000    0.00000000    0.00000000
    8   -5.05980705    2.06034176    7.18491621    -23.75829401   81.88384690   29.06158714      0.00000000    0.00000000    0.00000000
    1   -4.11812505    1.78310676    6.99427921     -1.42899255   -7.65501926   -1.26861976      0.00000000    0.00000000    0.00000000
    1   -5.83183805    2.40128876    6.64854821     -0.18337296   -2.31257055    3.45994129      0.00000000    0.00000000    0.00000000
    8   -8.54409882   -4.22776438   -2.77832740     -1.10001381    1.39598674   -1.05997174      0.00000000    0.00000000    0.00000000
    1   -9.41900682   -4.70906438   -2.83173640      2.41214274   -0.98164054    3.12487485      0.00000000    0.00000000    0.00000000
    1   -7.63546382   -4.42582438   -2.41073840      0.09609405   -0.70424909    0.36591162      0.00000000    0.00000000    0.00000000
    8   -3.82772001   -0.01184633   -5.97911597      2.29523174   -6.01624703    0.86271936      0.00000000    0.00000000    0.00000000
    1   -4.79928601    0.06271667   -5.75446997     -1.99869141    4.04981768    0.21145491      0.00000000    0.00000000    0.00000000
    1   -3.09675001    0.62266867   -6.23019597     -1.36786574    2.02058158    0.31933235      0.00000000    0.00000000    0.00000000
    8   -8.42115678   -0.03387392   -8.53329404     -4.02487145    1.69510797    4.02612390      0.00000000    0.00000000    0.00000000
    1   -8.51555478    0.96158608   -8.54407304     -0.99786445    4.07208768    1.56699600      0.00000000    0.00000000    0.00000000
    1   -8.98180678   -0.81264492   -8.81463704      0.28361698    0.73416024    0.14849419      0.00000000    0.00000000    0.00000000
    8    1.59947856   -7.68284705    5.59769452    -78.07268282  -53.70066814   38.34089404      0.00000000    0.00000000    0.00000000
    1    1.28139656   -6.95622505    6.20663752      5.45421828   -7.19468548   -4.46295247      0.00000000    0.00000000    0.00000000
    1    2.47026256   -7.94081905    5.17918152      3.73673896    9.21959879   -3.31836430      0.00000000    0.00000000    0.00000000
    8    8.00125711    4.10048538    3.12723906    -15.05160389   -5.52423135   -4.98240176      0.00000000    0.00000000    0.00000000
    1    8.53505311    3.25723038    3.06438306      3.52728448   -1.24115805    0.64288833      0.00000000    0.00000000    0.00000000
    1    7.43133111    4.63895338    2.50659206     13.32432639    5.25166496   -5.78918799      0.00000000    0.00000000    0.00000000
    8   -3.05458514    4.93913006   -1.55878287      4.15407794   -1.50527249    8.08602395      0.00000000    0.00000000    0.00000000
    1   -2.74402514    5.67083106   -0.95204287     -7.62068807    3.75886541   -9.17761607      0.00000000    0.00000000    0.00000000
    1   -3.04301514    3.93931606   -1.54445487      0.66386756    0.76581864   -6.95968299      0.00000000    0.00000000    0.00000000
    8    1.10751925    0.42146903    5.68927471     44.62656627   51.00592471  -31.47335803      0.00000000    0.00000000    0.00000000
    1    1.68079625    0.55129903    4.88028471      4.32623945    3.80729233    2.21475500      0.00000000    0.00000000    0.00000000
    1    0.17819625    0.09837403    5.86798071      8.99796969  -11.58505087   -9.71346608      0.00000000    0.00000000    0.00000000
    8    3.53978692    6.55185649    1.61455462     -3.28145691   64.54247446   69.09534696      0.00000000    0.00000000    0.00000000
    1    3.00913392    5.70789549    1.69268362    -27.26736617    1.85440696    5.81561150      0.00000000    0.00000000    0.00000000
    1    4.50779892    6.78751549    1.52862762     19.80242081    6.22346823  -11.51851550      0.00000000    0.00000000    0.00000000
    8  -13.44460593    3.55785491   -5.03299089      4.58687039   13.56209800   -5.76047785      0.00000000    0.00000000    0.00000000
    1  -13.53335393    2.56277991   -4.98923489     -0.37383397   -9.86885963    6.44430222      0.00000000    0.00000000    0.00000000
    1  -14.07239893    4.33426191   -5.08808189     -2.25643305   -2.00332840   -3.77934704      0.00000000    0.00000000    0.00000000
    8    1.81728517   -1.89106909   -6.58655979     43.58222682   44.25576412   21.91632338      0.00000000    0.00000000    0.00000000
    1    1.79321917   -1.45400209   -7.48564779      2.01204478   -0.24366070   -0.94172082      0.00000000    0.00000000    0.00000000
    1    1.14062117   -2.18884109   -5.91319179      8.00080199   -0.97955339    6.27495282      0.00000000    0.00000000    0.00000000
    8    0.35751953   -7.66489026    2.28760891     -4.92809396   -0.99106795   -6.84427427      0.00000000    0.00000000    0.00000000
    1   -0.04981747   -8.56162526    2.46055591      3.10886010   -0.55304175    4.02162648      0.00000000    0.00000000    0.00000000
    1    0.02491853   -6.72399926    2.22384091     -0.72041592   -2.11235272    1.03829367      0.00000000    0.00000000    0.00000000
    8   -2.27180339   -8.84679177   -9.41324490      1.38658690    2.28124404    1.76701813      0.00000000    0.00000000    0.00000000
    1   -3.17936239   -8.71402177    9.18841510      1.48990691   -0.81021902   -2.31192688      0.00000000    0.00000000    0.00000000
    1   -1.60669339   -8.27543277   -8.93246890     -0.00511195   -0.06410689   -5.66997553      0.00000000    0.00000000    0.00000000
    8   -7.78484891    7.96803118    1.98514406     -4.37758155    2.00667126   -0.83856823      0.00000000    0.00000000    0.00000000
    1   -8.49220291    7.33580618    1.66905906     -1.07538056    0.83962646    0.73339219      0.00000000    0.00000000    0.00000000
    1   -6.81497391    7.90323018    2.21989906     -2.17256484   -2.48871407    0.96257987      0.00000000    0.00000000    0.00000000
    8   -6.56778952   -0.97871017    0.97189384    -19.16703898  -20.28580645    6.01753569      0.00000000    0.00000000    0.00000000
    1   -5.94269252   -0.97113817    1.75238284      1.35811779  -15.61984694    6.70832643      0.00000000    0.00000000    0.00000000
    1   -6.87616052   -0.31458917    0.29085184     -3.33401623   -1.16913455  -10.67923107      0.00000000    0.00000000    0.00000000
    8   -6.83259171    4.32069661    5.12656302      9.04328314   -6.67893213   -5.79901849      0.00000000    0.00000000    0.00000000
    1   -7.49267771    3.57056161    5.08719502     -5.52943114    2.02889563    0.89605976      0.00000000    0.00000000    0.00000000
    1   -5.83975971    4.40129061    5.21463902     -2.65630589    7.74009467    3.68058338      0.00000000    0.00000000    0.00000000
    8    3.26534623   -6.88092485   -6.12592393    -17.03802290  -10.43187649  -53.21286236      0.00000000    0.00000000    0.00000000
    1    3.79850123   -6.08696885   -5.83378593     -7.55144337   -6.71479760    2.20939517      0.00000000    0.00000000    0.00000000
    1    2.44726923   -7.35649185   -5.80257593     -3.62639663    0.57950880   -6.61547549      0.00000000    0.00000000    0.00000000
    8    4.96625759    3.00984542    3.58886671     12.28963952  -37.91187639   10.21318667      0.00000000    0.00000000    0.00000000
    1    4.00499759    3.28542142    3.59124271      0.67403345    4.69855933    5.18497070      0.00000000    0.00000000    0.00000000
    1    5.84913159    3.47940842    3.58570371     -6.57325183  -25.07994270   17.11781951      0.00000000    0.00000000    0.00000000
    8    2.69395225   -3.71829515    2.96719292    -45.05349800  -95.56138671   15.00711761      0.00000000    0.00000000    0.00000000
    1    3.55584725   -4.14133015    3.24673592      2.85947099    5.57353959   -3.97171391      0.00000000    0.00000000    0.00000000
    1    1.76132325   -4.03380215    2.79218992      2.31096577   -0.88571633    1.80443022      0.00000000    0.00000000    0.00000000
    8    7.47680321    7.92425229    5.93521954     20.10578336   -4.45901427   11.93644704      0.00000000    0.00000000    0.00000000
    1    7.31808021    8.90720429    6.02784654      2.16038916   -1.40100093   13.63586494      0.00000000    0.00000000    0.00000000
    1    8.27475221    7.32156029    5.93296754      0.06177479   -5.63432462    0.97611047      0.00000000    0.00000000    0.00000000
    8    5.66061316    2.73628597    1.37875279    176.62851775 -142.07383036    7.13585540      0.00000000    0.00000000    0.00000000
    1    4.82078716    2.28722697    1.07378579     -0.28982850   24.54673406   -3.65201065      0.00000000    0.00000000    0.00000000
    1    5.89421716    3.46070397    2.02730079    -13.00592294  -30.48908368   -7.31382441      0.00000000    0.00000000    0.00000000
    8   -4.64708459   -0.14279871    6.44505833     27.15702069  -87.09522282  -32.84220507      0.00000000    0.00000000    0.00000000
    1   -4.21589359   -0.94964771    6.04128233      0.83019441    1.79435716    1.07845693      0.00000000    0.00000000    0.00000000
    1   -5.20117359    0.04693829    7.25558333     -1.54030081   11.92931057    5.76916312      0.00000000    0.00000000    0.00000000
    8    4.46512232    3.50005801    5.80537590     26.12636122  -39.83465005  114.39968782      0.00000000    0.00000000    0.00000000
    1    5.42949832    3.67355301    6.00498990     10.45026448    5.06873434   -5.64690772      0.00000000    0.00000000    0.00000000
    1    3.77809832    2.83537201    6.09889790     21.59008356  -32.06941375   30.56671571      0.00000000    0.00000000    0.00000000
    8    2.85482892    5.66197647   -6.74209659     82.50139863  -28.53259176  -67.26589087      0.00000000    0.00000000    0.00000000
    1    2.61929392    5.45126047   -5.79336659     -6.05793232   -7.45281799   28.15779402      0.00000000    0.00000000    0.00000000
    1    2.39269092    5.60702647   -7.62718159      2.34017923   -2.20868401   -8.26974906      0.00000000    0.00000000    0.00000000
    8   -2.06852986    6.03059160    8.24336874      4.96305309   -2.23730233    9.03378500      0.00000000    0.00000000    0.00000000
    1   -2.92287186    5.51636760    8.31846974     -3.54758536   -1.05046254   -2.35265471      0.00000000    0.00000000    0.00000000
    1   -1.09488486    5.80599460    8.20413074     -4.35289745    1.05764003   -1.00484360      0.00000000    0.00000000    0.00000000
    8    6.83604243    1.53778325    4.77393120     17.28777395    2.88364898   -4.81372251      0.00000000    0.00000000    0.00000000
    1    7.25754843    1.89742025    3.94148720     -5.75249932   -4.05830693    6.09643335      0.00000000    0.00000000    0.00000000
    1    6.85258043    0.67068025    5.27175220      3.02802283   -4.36553551    7.15971181      0.00000000    0.00000000    0.00000000
    8    5.97723256    0.94058318    7.98796071     18.69128000  -44.27764001  -91.52189483      0.00000000    0.00000000    0.00000000
    1    6.14533156    1.81720318    8.43878871      1.85448278    3.35659583   16.03131697      0.00000000    0.00000000    0.00000000
    1    6.12300456   -0.02304282    8.21188471      3.22824080    5.65613597    0.23392644      0.00000000    0.00000000    0.00000000
    8    0.79083801   -1.52025538    6.98176058    -39.82780174  -85.77816620   57.85605924      0.00000000    0.00000000    0.00000000
    1    1.31382601   -2.09814738    7.60825258     -2.53727950    6.03134252    0.05141150      0.00000000    0.00000000    0.00000000
    1    0.00820501   -1.64499038    6.37193058      2.62832147   -1.30041702   -1.26909700      0.00000000    0.00000000    0.00000000
    8    9.48938689   -6.92265922   -6.65084465     -6.62682886   -1.65134857   -2.76643286      0.00000000    0.00000000    0.00000000
    1   -8.53405011   -7.12360622   -6.72774265      1.28042032    1.15012156   -0.76483335      0.00000000    0.00000000    0.00000000
    1    8.75860789   -6.65445222   -7.27853265     -2.08264409   -0.92559564   -3.46110523      0.00000000    0.00000000    0.00000000
    8   -8.42029146   -8.36899741    7.32157370     -2.22129642    0.67026735   -0.53579861      0.00000000    0.00000000    0.00000000
    1   -8.19254646   -9.31100541    7.56798970      1.31394639   -1.51925667   -1.54320060      0.00000000    0.00000000    0.00000000
    1   -8.04166546   -7.67369441    6.71070270      1.74312890   -1.12060652    1.14091127      0.00000000    0.00000000    0.00000000
    8   -4.75048898   -5.79358834    5.79431533    -34.27565907   19.35597429  -15.37436509      0.00000000    0.00000000    0.00000000
    1   -4.85809198   -6.77302134    5.62373333     -1.33210718   -5.38209973    2.27304487      0.00000000    0.00000000    0.00000000
    1   -5.34306498   -4.98869334    5.76325333     -2.04395426   -1.37532491    2.80190773      0.00000000    0.00000000    0.00000000
    8    2.22731935    2.73909502    5.46727541    -36.15381576  -21.45565025  -24.25231716      0.00000000    0.00000000    0.00000000
    1    1.35511135    2.97279802    5.89692841     -7.74156434   10.07184154    3.41475060      0.00000000    0.00000000    0.00000000
    1    3.15100335    3.12213702    5.45993941     -2.20793729   25.88048281  -29.43575087      0.00000000    0.00000000    0.00000000
    8    2.16296173    0.44411815    0.41940615    -56.32688543   17.94327118  -10.04828993      0.00000000    0.00000000    0.00000000
    1    2.51761773    1.28774115    0.01631115      3.79748823    6.00815207   -0.83019789      0.00000000    0.00000000    0.00000000
    1    1.32484873    0.16886515    0.89032915     -1.66572407    5.63449653    7.41115773      0.00000000    0.00000000    0.00000000
    8    1.65905526   -6.79940966   -0.38171426      5.92432524   15.68780910   -4.57773658      0.00000000    0.00000000    0.00000000
    1    1.32032226   -7.73439366   -0.27667526     -3.44413821   -2.42989206    1.45481552      0.00000000    0.00000000    0.00000000
    1    1.75881426   -6.15104566   -1.13645826     -0.40967614   -0.87703427   -0.65522690      0.00000000    0.00000000    0.00000000
    8    2.13564003    3.04093196   -5.97003174     34.95202491   23.16067922  -82.56229365      0.00000000    0.00000000    0.00000000
    1    2.17349703    2.56536096   -5.09118874     -4.83295378    9.07252298   16.20146600      0.00000000    0.00000000    0.00000000
    1    1.47726003    3.62602496   -6.44349674      5.68879005    4.33512984    1.91431119      0.00000000    0.00000000    0.00000000
    8    5.97659546    5.31387897    4.75058006     23.42680762   22.39342295  -15.47978821      0.00000000    0.00000000    0.00000000
    1    6.02809846    6.30315797    4.88711406      0.89515782    7.56747417   12.68908437      0.00000000    0.00000000    0.00000000
    1    6.02931646    4.69187897    3.96936006     -3.25283192   16.92047874   20.46072704      0.00000000    0.00000000    0.00000000
    8    6.18267107    2.92110182   -0.92428264     78.68747358   20.71470447 -109.71663866      0.00000000    0.00000000    0.00000000
    1    5.18357907    2.88676782   -0.94884264    -11.93027704   -4.78254174    1.63569844      0.00000000    0.00000000    0.00000000
    1    6.93059107    2.40729782   -1.34450564     -2.59677254    1.79500343    1.24050189      0.00000000    0.00000000    0.00000000
    8   -3.86404686   -3.32026611   -5.45488118      4.80568707   -8.08982123    0.32099657      0.00000000    0.00000000    0.00000000
    1   -4.29376586   -2.64878511   -6.05855418     -1.00155030    7.68452902    4.34067046      0.00000000    0.00000000    0.00000000
    1   -3.86023486   -3.50558511   -4.47222618      0.66460578    0.52546763    0.51508486      0.00000000    0.00000000    0.00000000
    8    3.63390043   -8.49144927    0.81749685    -37.74189785   10.42575918    6.25135356      0.00000000    0.00000000    0.00000000
    1    3.66847143   -7.51969527    0.58411885     -0.09921195    9.18648622   -1.49500027      0.00000000    0.00000000    0.00000000
    1    2.91699343   -9.15416127    1.03388885     -3.56236278    1.52590637    4.54965835      0.00000000    0.00000000    0.00000000
    8    4.27780417   -0.09662750   -0.42185459     66.73146978  -46.29626769 -106.06785314      0.00000000    0.00000000    0.00000000
    1    4.75129917    0.43696550    0.27889241      9.30303556   -8.26024016    6.78677632      0.00000000    0.00000000    0.00000000
    1    3.65374917    0.10167950   -1.17762959      2.06359326   -1.48976755   -7.83037989      0.00000000    0.00000000    0.00000000
    8    3.40193675    7.53928601   -4.99596887     22.21582201   76.58012965   -2.47400083      0.00000000    0.00000000    0.00000000
    1    3.22220175    8.51345601   -5.13254787      6.01610855    5.47964201   -1.01317192      0.00000000    0.00000000    0.00000000
    1    4.21315875    6.96820101   -4.87047387      4.67280762    6.63609058   -8.93162939      0.00000000    0.00000000    0.00000000
    8    7.43648932    7.97271701   -1.76841002      1.71280950   -4.30045683    5.53678272      0.00000000    0.00000000    0.00000000
    1    7.55475632    8.80675001   -1.22955202     -0.02018007    8.12566668   -3.07868074      0.00000000    0.00000000    0.00000000
    1    8.03915432    7.33321301   -2.24569002     -0.58104009    2.20199222   -5.40143279      0.00000000    0.00000000    0.00000000
    8   -3.11226297   -2.61441378    0.64718608    -23.38119267   11.32572948    6.94636733      0.00000000    0.00000000    0.00000000
    1   -2.25886397   -3.01994478    0.97463308      7.16831353   -2.17609463   -8.77104151      0.00000000    0.00000000    0.00000000
    1   -4.07807597   -2.66854378    0.90064508      1.25804278   -3.17583798   -2.02383338      0.00000000    0.00000000    0.00000000
    8   -1.23467918    0.90141583    5.25070614    -53.49126205   -3.95494190  -12.33261575      0.00000000    0.00000000    0.00000000
    1   -0.59347018    1.06135783    6.00119614      6.83775887   22.45967274    4.64709620      0.00000000    0.00000000    0.00000000
    1   -1.73828918    1.47102683    4.60117814     -0.60111261    3.21863332    0.19830784      0.00000000    0.00000000    0.00000000
    8   -1.39269691    4.98012724    1.41297598    -71.65851972    4.22305821  -74.94284377      0.00000000    0.00000000    0.00000000
    1   -1.84739391    5.17492524    0.54391198      2.27031385   -4.51043054    2.05497648      0.00000000    0.00000000    0.00000000
    1   -0.95794391    4.18451424    1.83482498     -5.28083054    1.53737987   -6.71328048      0.00000000    0.00000000    0.00000000
    8    6.18018315    2.92415130   -4.47250245     45.10662235   79.71079171  -41.03265999      0.00000000    0.00000000    0.00000000
    1    5.86193215    1.97640130   -4.49379445     -9.72162671  -12.02760821    0.33943342      0.00000000    0.00000000    0.00000000
    1    5.75065215    3.82715530   -4.46514445     -1.24186073    0.90917520   -6.27242558      0.00000000    0.00000000    0.00000000
    8    3.13381392   -2.32585090    0.52219498    -11.49805726  -51.94162642  -66.10441116      0.00000000    0.00000000    0.00000000
    1    2.50815492   -3.04783590    0.81758798      3.93302736    2.67252370    6.70935898      0.00000000    0.00000000    0.00000000
    1    3.28284492   -1.36433690    0.75294598     -4.82976303   20.20169057  -13.46917105      0.00000000    0.00000000    0.00000000
    8    6.39295161    3.74848190   -8.56092945     60.68223348  106.03263878   13.38436890      0.00000000    0.00000000    0.00000000
    1    5.57550861    3.17432790   -8.60674845     -6.05239680  -25.81011164    2.53986606      0.00000000    0.00000000    0.00000000
    1    6.58464161    4.71449790   -8.38762045     -0.29508161   -7.37270113    4.17883131      0.00000000    0.00000000    0.00000000
    8    0.83117992    6.82445587   -6.28184628    -90.81658789   32.18019689   19.22735891      0.00000000    0.00000000    0.00000000
    1    1.71608992    7.27290687   -6.15617828     16.54694066   -0.26857051    0.71819310      0.00000000    0.00000000    0.00000000
    1   -0.12786608    7.07717387   -6.15405528      4.65699434    5.33537970   -4.08276204      0.00000000    0.00000000    0.00000000
    8    9.29169053    3.28617720   -2.96658537      4.10269959   -2.23382000    3.86868862      0.00000000    0.00000000    0.00000000
    1    9.15650353    2.38313720   -2.55889637      0.52928848   -0.16977500   -5.68629383      0.00000000    0.00000000    0.00000000
    1    9.48031853    4.20768520   -2.62716137     -1.57028205   -1.02883279   -0.93728725      0.00000000    0.00000000    0.00000000
    8    1.03756006    0.32050989    2.59098400      1.61583290  -23.05725246   76.89295947      0.00000000    0.00000000    0.00000000
    1    0.10920906   -0.05103611    2.60025100      0.74413195  -13.40210007   35.00557086      0.00000000    0.00000000    0.00000000
    1    1.96159106   -0.05003811    2.68494500     -0.81696069    2.05734051   -2.95376825      0.00000000    0.00000000    0.00000000
    8    8.10082481   -4.51327477    3.31397091    -30.99348458   16.53890712  -84.46730764      0.00000000    0.00000000    0.00000000
    1    8.56193281   -5.25527077    2.82736291     -2.79807115   -1.05124145    2.39148345      0.00000000    0.00000000    0.00000000
    1    7.22020681   -4.04478577    3.24328191      1.55710185   -2.70972482    2.54804328      0.00000000    0.00000000    0.00000000
    8   -9.45903907    6.94287450   -6.58421062     -3.52577535    3.19321733   -4.40277596      0.00000000    0.00000000    0.00000000
    1    9.38576393    7.01662650   -7.56932062     -0.74938149   -2.89549121   -0.15233141      0.00000000    0.00000000    0.00000000
    1   -8.69756307    6.67475750   -5.99409762     -3.60172011   -2.92542972   -0.31407744      0.00000000    0.00000000    0.00000000
    8    2.55261887    5.39450873   -4.36527735    -24.10474384  -78.62666219   76.62731289      0.00000000    0.00000000    0.00000000
    1    3.44706787    5.74277073   -4.08484935     -7.08193264    4.82926890    3.71646175      0.00000000    0.00000000    0.00000000
    1    1.63324587    5.77393373   -4.46899435     -4.68370098    7.31795166   -0.67607112      0.00000000    0.00000000    0.00000000
    8    6.05512232   -7.98741307   -1.03693529     18.01790095  -25.32496537  -43.65119625      0.00000000    0.00000000    0.00000000
    1    6.06352132   -7.05011207   -0.68856329     -4.67717534    7.01853208   12.40717688      0.00000000    0.00000000    0.00000000
    1    5.59792332   -8.84209607   -0.79105929     -2.66900475    6.47759926    3.31857472      0.00000000    0.00000000    0.00000000
    8   -2.78341075    4.66318723    3.58973891     -6.82645248   10.43923594  -43.54608188      0.00000000    0.00000000    0.00000000
    1   -1.83605175    4.74959223    3.28149891     -3.48990227   10.08358713   -5.25046478      0.00000000    0.00000000    0.00000000
    1   -3.63848175    4.32178523    3.19952791      6.06938377    3.77394382   -1.37565208      0.00000000    0.00000000    0.00000000
    8   -2.43365669   -6.34966440    6.30112295     60.40713252  -14.50152157   15.14510713      0.00000000    0.00000000    0.00000000
    1   -3.18678569   -5.76586640    5.99790095    -24.72053987   -0.35753227   -5.93458240      0.00000000    0.00000000    0.00000000
    1   -1.43542769   -6.29077440    6.30726795      0.79917232   -7.85643138    1.63764960      0.00000000    0.00000000    0.00000000
    8    4.42503940   -6.60377029   -3.96958179     19.83964741   15.88929691   38.03219488      0.00000000    0.00000000    0.00000000
    1    5.06725640   -6.31393629   -4.67917379      4.01085740   -6.81011003    7.91983265      0.00000000    0.00000000    0.00000000
    1    3.68736140   -6.17472029   -3.44832179      2.48938381   -4.69454563    0.52483404      0.00000000    0.00000000    0.00000000
    8    5.17810174    0.18428625    1.75211119     28.54431779   32.58130827   51.72121767      0.00000000    0.00000000    0.00000000
    1    5.43204574    1.13602825    1.92434919     18.74473740   17.71556490   12.67482523      0.00000000    0.00000000    0.00000000
    1    5.36707174   -0.49325575    1.04134019     10.01467455  -22.47850088  -10.69629817      0.00000000    0.00000000    0.00000000
    8    0.86285412   -0.02431331   -2.18312432     -4.92817862    6.81601193    7.37388991      0.00000000    0.00000000    0.00000000
    1    1.31617012    0.77431469   -1.78731532      5.55283235   -1.20300732   -3.40116959      0.00000000    0.00000000    0.00000000
    1   -0.04226188   -0.22561831   -2.55756732      1.73654291   -0.88048774   -1.22744321      0.00000000    0.00000000    0.00000000
    8   -1.46589454    7.83291007    2.85806057      4.62633137   -0.03516100   -2.11669380      0.00000000    0.00000000    0.00000000