 BEGIN_INFO
   #
   # This is a XCRYSDEN-Structure-File
   # aimed for Visualization of Fermi Surface
   #
   # Case: Tight-binding calculation
   #
   # Launch as: xcrysden --xsf HICOLM.XSF
   #
 END_INFO
 # estrutura final
CRYSTAL
PRIMVEC
      19.00000000       0.00000000       0.00000000
       0.00000000      19.00000000       0.00000000
       0.00000000       0.00000000      19.00000000
PRIMCOORD
  300    1
    8    5.29800659   -6.77590394    0.92982315     34.06833061  125.50875089   54.91689597      0.00000000    0.00000000    0.00000000
    1    4.72512227   -5.96449830    0.81409753     -0.86611525    4.86804329    3.16979905      0.00000000    0.00000000    0.00000000
    1    5.30449152   -7.57138043    1.53570019     -4.94198358  -13.86523555    4.58085584      0.00000000    0.00000000    0.00000000
    8    5.52044463    1.19736433   -3.50059829  -3156.35833858  465.07841806 4612.70797895      0.00000000    0.00000000    0.00000000
    1    5.89805044    0.32005757   -3.79536115     35.03146096 -133.87755087  -88.99356471      0.00000000    0.00000000    0.00000000
    1    5.88668242    2.10328622   -3.28700504     17.29253910   37.57640728  -24.06451268      0.00000000    0.00000000    0.00000000
    8    2.38641244    1.12889452   -7.63540636      0.25233789  -21.15886486  -19.79864152      0.00000000    0.00000000    0.00000000
    1    2.11507385    1.52024064   -8.51470836      1.36508478    4.02383057    2.84317301      0.00000000    0.00000000    0.00000000
    1    3.19060914    0.65521533   -7.27638140     -0.31796552    4.30150363    5.63868987      0.00000000    0.00000000    0.00000000
    8   -3.19660158    4.07187235    5.76906310    -56.75047757  -65.75576860  204.75887321      0.00000000    0.00000000    0.00000000
    1   -2.40974689    3.50484905    6.01251235      1.83984474    5.32633632    3.83346359      0.00000000    0.00000000    0.00000000
    1   -4.05916026    3.93436479    5.28213900     10.65998136    1.05972998    1.10974062      0.00000000    0.00000000    0.00000000
    8   -2.50079599   -8.01099178   -3.98971835      4.05014274   -5.58333647   -0.71006236      0.00000000    0.00000000    0.00000000
    1   -1.83025181   -7.48914203   -3.46245422     -0.26135320    1.40038103    1.94699575      0.00000000    0.00000000    0.00000000
    1   -3.06476695   -7.84692702   -4.79903144     -1.39398471    3.18478855   -0.96246744      0.00000000    0.00000000    0.00000000
    8    0.33242123   -3.60637506   -7.05955407   -135.13351545 -152.42114453  -39.44067241      0.00000000    0.00000000    0.00000000
    1    0.05022763   -4.19954307   -7.81352617      0.19119745    2.21566518   -1.64810479      0.00000000    0.00000000    0.00000000
    1    0.25030584   -2.63438542   -6.83949727      2.11424570    1.83396051  -12.82039525      0.00000000    0.00000000    0.00000000
    8    3.42236873   -1.49033218    7.31556587     19.43563162  -19.85351633   12.74729839      0.00000000    0.00000000    0.00000000
    1    2.96009874   -2.37646193    7.34765460      4.60851357    2.95663422   -5.81001170      0.00000000    0.00000000    0.00000000
    1    3.15510851   -0.53475963    7.43960743     -7.66775772    6.60121542   -1.60341776      0.00000000    0.00000000    0.00000000
    8   -6.43780073   -0.03313072    4.21799502     -0.48577783   -1.56547525   -7.86774986      0.00000000    0.00000000    0.00000000
    1   -6.95527214    0.82018433    4.15436548      0.84046412   -2.00629237    1.54332812      0.00000000    0.00000000    0.00000000
    1   -6.50322414   -0.87587794    4.75226082      1.37138120    1.07276246    3.84067388      0.00000000    0.00000000    0.00000000
    8    0.43135326    5.26147815    2.39988791   1683.72141736-3922.86362360 5272.47846975      0.00000000    0.00000000    0.00000000
    1   -0.18638956    5.98452832    2.71097557    -46.11970365    1.37437307   10.10297787      0.00000000    0.00000000    0.00000000
    1    0.35179348    4.44593216    1.82692390     15.82346240   19.70176064  -15.48592897      0.00000000    0.00000000    0.00000000
    8   -3.53015554    5.65889385   -5.21647161     -0.14892594    5.31397105   -6.41901177      0.00000000    0.00000000    0.00000000
    1   -4.46660432    6.00950750   -5.20679406      0.88503795    0.85002330    0.78840372      0.00000000    0.00000000    0.00000000
    1   -2.62610418    6.02798792   -5.43195614     -3.66237223   -1.53806512    1.28673281      0.00000000    0.00000000    0.00000000
    8   -5.10775707    0.87735767    1.40955038    202.64267297 -196.99401256   67.58233111      0.00000000    0.00000000    0.00000000
    1   -5.82591481    0.18159773    1.42171643     -0.37692280    1.73481478    1.00448622      0.00000000    0.00000000    0.00000000
    1   -4.43144027    1.22444823    2.05923482      0.59700837   -8.57316583   -0.53260521      0.00000000    0.00000000    0.00000000
    8    0.36436014   -7.25846991   -7.36125599     -2.62347103   -9.01375121   -2.00612589      0.00000000    0.00000000    0.00000000
    1   -0.01060984   -6.33145106   -7.36199748      2.84488615   -0.45794589    4.00461285      0.00000000    0.00000000    0.00000000
    1   -0.00992432   -8.18576272   -7.35701439      3.40263421   -2.50352280   -0.69927969      0.00000000    0.00000000    0.00000000
    8   -5.00142495    1.77712715    7.08427661   -853.18399775 4713.25553949 1575.86592949      0.00000000    0.00000000    0.00000000
    1   -4.05892140    1.49980046    6.89423547     -9.08678505  -20.17026925   -9.45327757      0.00000000    0.00000000    0.00000000
    1   -5.77266836    2.11803531    6.54847588      2.14282443   -5.65120233    0.55160242      0.00000000    0.00000000    0.00000000
    8   -8.54330865   -4.22905693   -2.77752035      0.26868251    0.35511721    0.20981585      0.00000000    0.00000000    0.00000000
    1   -9.41822219   -4.71034575   -2.83092952     -0.52134846    0.90516420    2.90436529      0.00000000    0.00000000    0.00000000
    1   -7.63467462   -4.42711713   -2.40992788      0.52647281   -0.45368185   -0.32815264      0.00000000    0.00000000    0.00000000
    8   -3.82957039   -0.00676843   -5.97987826      2.31932066   -6.21205247    0.53060004      0.00000000    0.00000000    0.00000000
    1   -4.80112512    0.06779994   -5.75524146     -2.16031888    4.04735241    0.81354911      0.00000000    0.00000000    0.00000000
    1   -3.09859530    0.62775361   -6.23096020     -2.35303251    1.52767247   -0.76895541      0.00000000    0.00000000    0.00000000
    8   -8.41821204   -0.03566979   -8.53689241     -4.12499771    2.75761371    1.93003536      0.00000000    0.00000000    0.00000000
    1   -8.51260245    0.95978426   -8.54767957      1.75748324    3.31568770   -0.54326260      0.00000000    0.00000000    0.00000000
    1   -8.97886023   -0.81444444   -8.81823698      1.03418048   -0.14454531   -0.15624284      0.00000000    0.00000000    0.00000000
    8    1.82839021   -6.94681157    5.86495843   -100.59873867-2832.13497180 3031.67336351      0.00000000    0.00000000    0.00000000
    1    1.50910400   -6.22286586    6.47106420     53.40408456   44.47967846   81.88873138      0.00000000    0.00000000    0.00000000
    1    2.69831146   -7.20743671    5.44357220     18.52638573   39.84640978  -50.36598860      0.00000000    0.00000000    0.00000000
    8    8.01377951    4.10436347    3.13048048    -15.77767879   -4.10147380   -2.12384766      0.00000000    0.00000000    0.00000000
    1    8.54757623    3.26111455    3.06761581      2.36792497   -2.28424439   -0.28641348      0.00000000    0.00000000    0.00000000
    1    7.44384340    4.64285634    2.50981778     12.33305679    3.18520769   -4.47266645      0.00000000    0.00000000    0.00000000
    8   -3.05769794    4.94035703   -1.56455358      4.13088951   -1.76404117    7.11572402      0.00000000    0.00000000    0.00000000
    1   -2.74714955    5.67205362   -0.95780623     -3.47946971    0.29932250   -6.11652694      0.00000000    0.00000000    0.00000000
    1   -3.04613493    3.94053740   -1.55022627      0.25236022   -0.72775605   -5.72845674      0.00000000    0.00000000    0.00000000
    8    1.03310003    0.21577098    5.82047198    350.14310439 2379.41377783-1582.40718290      0.00000000    0.00000000    0.00000000
    1    1.60664741    0.34553660    5.01143563      3.68717435   -1.80736562    3.23932954      0.00000000    0.00000000    0.00000000
    1    0.10404718   -0.10736076    5.99913383     13.31332038   -3.06486322   -3.02366211      0.00000000    0.00000000    0.00000000
    8    3.39609548    6.38343033    1.57588875    616.03380838 2110.72182815 -512.07359717      0.00000000    0.00000000    0.00000000
    1    2.86558175    5.53948111    1.65370986     31.99639749 -108.86690495  -14.90621613      0.00000000    0.00000000    0.00000000
    1    4.36418209    6.61909952    1.48977140     31.44283820   10.37742193  -12.06473231      0.00000000    0.00000000    0.00000000
    8   -8.12828642    3.53663386   -0.43637820    -30.48805855   39.92306451  -34.87691831      0.00000000    0.00000000    0.00000000
    1   -8.21426397    2.54811618   -0.39097157     -3.22355290   -7.65919959   -0.37854437      0.00000000    0.00000000    0.00000000
    1   -8.75330502    4.31960576   -0.48982523     -2.27605437   -2.49028415    2.19193186      0.00000000    0.00000000    0.00000000
    8    1.75566805   -1.95926838   -6.61225976    124.26248947  148.62510385   37.85247723      0.00000000    0.00000000    0.00000000
    1    1.73158625   -1.52218772   -7.51135592      1.56200978   -0.77594281   -1.06101820      0.00000000    0.00000000    0.00000000
    1    1.07897829   -2.25705470   -5.93889100     12.19137263   -2.82305336   10.00895851      0.00000000    0.00000000    0.00000000
    8    0.36124405   -7.66410346    2.29314899     -4.57314017   -2.62786166   -5.80613629      0.00000000    0.00000000    0.00000000
    1   -0.04610760   -8.56083614    2.46610392      3.30910405   -0.16312564    4.33919703      0.00000000    0.00000000    0.00000000
    1    0.02863988   -6.72321379    2.22937717     -0.90835992   -2.88113512    1.95537315      0.00000000    0.00000000    0.00000000
    8   -2.27322803   -8.84883811   -9.41475517     -0.57378008    0.57756311    2.51825982      0.00000000    0.00000000    0.00000000
    1   -3.18074382   -8.71590612    9.18707077      2.63648924   -1.14130733   -0.97815266      0.00000000    0.00000000    0.00000000
    1   -1.60808487   -8.27748438   -8.93398093      0.99726244    0.45160221   -5.26753948      0.00000000    0.00000000    0.00000000
    8   -7.78154128    7.96602484    1.98580569     -2.41755510    4.35261719   -1.24337424      0.00000000    0.00000000    0.00000000
    1   -8.48888988    7.33380699    1.66971647     -0.55163002    2.01478904    1.40984068      0.00000000    0.00000000    0.00000000
    1   -6.81166192    7.90122233    2.22057964     -2.61448853   -3.07440703    0.64263595      0.00000000    0.00000000    0.00000000
    8   -6.54247145    2.44082127    0.97025950   -144.19949094  167.60176816   -5.80901112      0.00000000    0.00000000    0.00000000
    1   -5.92007997    2.44179072    1.74905930      4.35575454   -8.90897183   -8.85196216      0.00000000    0.00000000    0.00000000
    1   -6.85355612    3.09833142    0.28751529    -14.41206921   15.26836828  -12.47426350      0.00000000    0.00000000    0.00000000
    8   -6.83989097    4.32588904    5.13163224     11.18535610   -5.51845348   -4.39982795      0.00000000    0.00000000    0.00000000
    1   -7.49997861    3.57575634    5.09226025     -2.58969839    3.18338614    2.52118615      0.00000000    0.00000000    0.00000000
    1   -5.84705785    4.40649032    5.21970335     -1.64679360    5.22531673    5.46126338      0.00000000    0.00000000    0.00000000
    8    3.28932897   -6.87053495   -6.06428650    -41.86866888  -10.14378488  -95.59285995      0.00000000    0.00000000    0.00000000
    1    3.82245836   -6.07657094   -5.77217213     -8.79944875   -5.41320545    1.69226704      0.00000000    0.00000000    0.00000000
    1    2.47125508   -7.34610370   -5.74093718     -2.22882722    1.00007265   -5.32628118      0.00000000    0.00000000    0.00000000
    8    4.94751263    3.04713026    3.61913790     48.13080266  -47.42984946  -97.42472960      0.00000000    0.00000000    0.00000000
    1    3.98625534    3.32269137    3.62152352      0.91756485    3.13348188    5.84095421      0.00000000    0.00000000    0.00000000
    1    5.83043032    3.51665747    3.61593848     -4.44953146  -24.42508249   10.40428787      0.00000000    0.00000000    0.00000000
    8    2.82397037   -3.42458410    2.90688904  -2559.30065015-6108.22308972 1469.06694838      0.00000000    0.00000000    0.00000000
    1    3.68544500   -3.84722308    3.18730794      1.16342951    9.02243655   -4.41715559      0.00000000    0.00000000    0.00000000
    1    1.89092364   -3.73969439    2.73275946      6.12206999    3.55681318   -0.55614856      0.00000000    0.00000000    0.00000000
    8    7.45497142    7.92880453    5.91762048     33.07330571   -9.86827084   25.14868116      0.00000000    0.00000000    0.00000000
    1    7.29629759    8.91172923    6.01022845      3.55795719   -3.60597338   14.58988227      0.00000000    0.00000000    0.00000000
    1    8.25292737    7.32611072    5.91536050      0.93465981   -5.43585839    1.17599667      0.00000000    0.00000000    0.00000000
    8    5.36594642    2.88242467    1.19048773   2437.42818253  778.63408462 3197.14198611      0.00000000    0.00000000    0.00000000
    1    4.52588417    2.43375144    0.88566261     -8.04968989   43.60214834  -51.16919514      0.00000000    0.00000000    0.00000000
    1    5.59938675    3.60713638    1.83907130    -16.80713760  -22.05082282   -5.89731576      0.00000000    0.00000000    0.00000000
    8   -4.70989709    0.14450496    6.54540771    868.72699556-4719.84645850-1565.32003650      0.00000000    0.00000000    0.00000000
    1   -4.27948690   -0.66230276    6.14106854     -1.60452046    2.50164248   -0.24591806      0.00000000    0.00000000    0.00000000
    1   -5.26483126    0.33429254    7.35532346     -0.63142092   25.38749672    2.58696490      0.00000000    0.00000000    0.00000000
    8    4.30518442    3.71155609    5.70647464   3305.06164432-4522.20399815 -910.62251249      0.00000000    0.00000000    0.00000000
    1    5.26883860    3.88438138    5.90707191     21.45327392   10.11018819   -4.50587260      0.00000000    0.00000000    0.00000000
    1    3.61767624    3.04610868    6.00088424     38.00796296  -53.65289413   83.76305091      0.00000000    0.00000000    0.00000000
    8    2.58335927    5.80533033   -6.53074684   4993.17483592-2953.90980209-1686.82645064      0.00000000    0.00000000    0.00000000
    1    2.34872912    5.59546832   -5.58090924     27.33791215  -12.43300323   51.62818738      0.00000000    0.00000000    0.00000000
    1    2.12207763    5.75134944   -7.41463490     -6.99676392    0.85926919    3.80306613      0.00000000    0.00000000    0.00000000
    8   -2.07194596    6.03239036    8.23560528      2.20960370   -2.49245382    7.96806161      0.00000000    0.00000000    0.00000000
    1   -2.92629196    5.51815217    8.31071443     -4.43948181   -0.69609130   -3.57632522      0.00000000    0.00000000    0.00000000
    1   -1.09830201    5.80777978    8.19637665     -3.74459565    0.26359039   -1.01964182      0.00000000    0.00000000    0.00000000
    8    7.09379696    1.44582178    5.30105689  -1946.53321521 4951.95430656-3653.69875006      0.00000000    0.00000000    0.00000000
    1    7.51744031    1.80436742    4.46604814     -5.68964494   -4.30071965    8.30428928      0.00000000    0.00000000    0.00000000
    1    7.11259460    0.57772563    5.79615127     98.70073632  -46.00659818   71.67555922      0.00000000    0.00000000    0.00000000
    8    5.91978611    1.04777693    8.21093687    208.31214846 -461.09411225 -777.71875865      0.00000000    0.00000000    0.00000000
    1    6.08784231    1.92426220    8.66181767      2.72040720    7.30746708   28.74579147      0.00000000    0.00000000    0.00000000
    1    6.06549249    0.08407369    8.43491879      2.74657338    7.60062104    0.86279570      0.00000000    0.00000000    0.00000000
    8    0.84909234   -1.28829079    6.82679577   -334.95758505-2394.00777817 1599.86376236      0.00000000    0.00000000    0.00000000
    1    1.37179730   -1.86611519    7.45333673     -0.30720036    7.20702203   -1.30310894      0.00000000    0.00000000    0.00000000
    1    0.06621727   -1.41293573    6.21701654      8.54519292  -10.98486331    2.88156897      0.00000000    0.00000000    0.00000000
    8    9.49528246   -6.92112954   -6.64838769     -7.68811265   -2.85873140   -3.31622828      0.00000000    0.00000000    0.00000000
    1   -8.52801676   -7.12213893   -6.72538681      0.49397579    2.27802563    0.34091129      0.00000000    0.00000000    0.00000000
    1    8.76450850   -6.65294846   -7.27604188      0.09173436    0.06739068   -0.79942355      0.00000000    0.00000000    0.00000000
    8   -8.41934286   -8.36941638    7.32142110      0.08227811    3.26428959    1.71705990      0.00000000    0.00000000    0.00000000
    1   -8.19158424   -9.31142753    7.56784803      0.90111156   -2.19933487   -1.73545438      0.00000000    0.00000000    0.00000000
    1   -8.04071262   -7.67410655    6.71056295      1.15450162   -1.66746799    1.05451625      0.00000000    0.00000000    0.00000000
    8   -4.70160785   -5.81635930    5.81226398      5.24560715   -1.88581355   -3.49449044      0.00000000    0.00000000    0.00000000
    1   -4.80921168   -6.79578994    5.64168419      0.49098754   -2.42780423    2.34281049      0.00000000    0.00000000    0.00000000
    1   -5.29418382   -5.01146052    5.78120528      1.19188975   -0.45182272    1.77217211      0.00000000    0.00000000    0.00000000
    8    2.28732406    2.77442380    5.48824601   -147.85336914 -108.49922572  -26.73322977      0.00000000    0.00000000    0.00000000
    1    1.41509523    3.00811890    5.91790956     -8.56792362    8.60686089    6.46345880      0.00000000    0.00000000    0.00000000
    1    3.21081861    3.15752189    5.48098809    -30.39679635   41.61575835  -88.07941662      0.00000000    0.00000000    0.00000000
    8    2.40059713    0.38285675    0.36379537  -3275.20391322  773.26638034 1082.73625048      0.00000000    0.00000000    0.00000000
    1    2.75525176    1.22655308   -0.03936606      4.66868225    0.74346175    0.23965712      0.00000000    0.00000000    0.00000000
    1    1.56248109    0.10767417    0.83465509     -4.94007740    3.52423564    5.64649260      0.00000000    0.00000000    0.00000000
    8    1.65549453   -6.81198459   -0.37782218      4.33701655   17.67619433   -2.29428476      0.00000000    0.00000000    0.00000000
    1    1.31676354   -7.74696785   -0.27279416     -3.70485299    0.18809219    0.30499114      0.00000000    0.00000000    0.00000000
    1    1.75525524   -6.16361876   -1.13257408     -1.02705489   -5.82640871   -1.49689494      0.00000000    0.00000000    0.00000000
    8    2.00703218    2.99071126   -5.69385258   2215.72860459  658.53137220-4487.99461244      0.00000000    0.00000000    0.00000000
    1    2.04523341    2.51526582   -4.81481509    -32.22299943   28.27459114   45.72916199      0.00000000    0.00000000    0.00000000
    1    1.34891825    3.57587230   -6.16719240      9.92073418    6.79992614    4.66902199      0.00000000    0.00000000    0.00000000
    8    5.94880317    5.28820580    4.76486004     49.62309964   35.48534142  -23.60161804      0.00000000    0.00000000    0.00000000
    1    6.00032348    6.27746026    4.90140322      0.46872460    4.79537506   10.61690879      0.00000000    0.00000000    0.00000000
    1    6.00152463    4.66616266    3.98369062     -3.00954415   20.10999576   16.37938875      0.00000000    0.00000000    0.00000000
    8    6.02306484    2.88839272   -0.74677925    877.41480114  163.80111211 -842.94693640      0.00000000    0.00000000    0.00000000
    1    5.02403021    2.85394869   -0.77132493    -27.53088108  -20.79025332   23.10573266      0.00000000    0.00000000    0.00000000
    1    6.77102343    2.37452153   -1.16696335     -7.13987636    2.79341168   -1.19822615      0.00000000    0.00000000    0.00000000
    8   -3.86811652   -3.31353574   -5.45507356      3.48233302   -7.98642258   -0.83868717      0.00000000    0.00000000    0.00000000
    1   -4.29782351   -2.64204470   -6.05875953     -0.41909126    7.51568180    4.21920963      0.00000000    0.00000000    0.00000000
    1   -3.86430189   -3.49885396   -4.47242125      1.01289495    0.76747899    0.90676838      0.00000000    0.00000000    0.00000000
    8    3.67248224   -8.48059136    0.81490342    -58.77134268  -56.22864336   -1.01597318      0.00000000    0.00000000    0.00000000
    1    3.70705419   -7.50883499    0.58154674      2.05288316    6.74026915   -1.32556194      0.00000000    0.00000000    0.00000000
    1    2.95555671   -9.14331038    1.03128861     -5.21755741   -0.37270353    5.67297258      0.00000000    0.00000000    0.00000000
    8    4.05522960    0.02173588   -0.22612303   2801.10549214 3164.61363113-6270.48774236      0.00000000    0.00000000    0.00000000
    1    4.52870854    0.55463028    0.47409534     19.88731783  -53.05435228  -20.85355589      0.00000000    0.00000000    0.00000000
    1    3.43115096    0.21928725   -0.98235517     -2.63865514  -11.87649154    5.88207748      0.00000000    0.00000000    0.00000000
    8    3.33026096    7.34556046   -4.97678840    497.47505885 1209.73628190 -171.08791183      0.00000000    0.00000000    0.00000000
    1    3.15046006    8.31974875   -5.11338712      5.98667299    6.25250589    0.28921063      0.00000000    0.00000000    0.00000000
    1    4.14137803    6.77452146   -4.85130186      8.96476545   11.69978159  -20.74011749      0.00000000    0.00000000    0.00000000
    8    7.43492476    7.97432755   -1.77353273      3.02247434   -3.21425480    8.78566235      0.00000000    0.00000000    0.00000000
    1    7.55318540    8.80836831   -1.23465922      0.10048342    7.49294409   -2.34308439      0.00000000    0.00000000    0.00000000
    1    8.03757874    7.33483728   -2.25080669     -0.75204640    0.80431498   -4.80518833      0.00000000    0.00000000    0.00000000
    8   -3.09158737   -2.62477746    0.64096342    -22.82841526   11.67885499    8.51304332      0.00000000    0.00000000    0.00000000
    1   -2.23817867   -3.03031288    0.96841995      7.65679199   -0.80938760   -8.97183367      0.00000000    0.00000000    0.00000000
    1   -4.05739983   -2.67890512    0.89443187      2.08312104   -3.08072612    0.48899878      0.00000000    0.00000000    0.00000000
    8   -1.17590171    0.89840712    5.26547384    -75.44581976   11.09672921  -22.57379960      0.00000000    0.00000000    0.00000000
    1   -0.53472533    1.05838243    6.01595526     12.71021339   15.79394378    3.42107847      0.00000000    0.00000000    0.00000000
    1   -1.67951768    1.46802316    4.61594284     -2.18465259    4.28350153    1.22420927      0.00000000    0.00000000    0.00000000
    8   -1.05067559    5.00911312    1.63840399  -6907.78327748-1191.21672497-3557.49197221      0.00000000    0.00000000    0.00000000
    1   -1.50487270    5.20441224    0.76813047     -1.57481095   -0.14512809    0.39981119      0.00000000    0.00000000    0.00000000
    1   -0.61539893    4.21399160    2.05906724    -16.30077456    1.93581193   13.62203766      0.00000000    0.00000000    0.00000000
    8    6.05264807    2.64416760   -4.30586298   1599.24461842 4338.14917677-2356.02355219      0.00000000    0.00000000    0.00000000
    1    5.73406118    1.69619573   -4.32774284    -31.63856158  -57.96897375   49.59600799      0.00000000    0.00000000    0.00000000
    1    5.62284349    3.54702911   -4.29897449     -2.34164002    1.66643933   -2.78252831      0.00000000    0.00000000    0.00000000
    8    4.10521778   -1.03461808    1.12484783  -4271.83057709-4879.64970701 1379.87106828      0.00000000    0.00000000    0.00000000
    1    3.47944715   -1.75601643    1.42110586    -70.84958667   94.29957066   13.73343362      0.00000000    0.00000000    0.00000000
    1    4.25421431   -0.07247425    1.35630678     16.80788751  -44.59457152   -0.53510927      0.00000000    0.00000000    0.00000000
    8    6.22416354    3.42459431   -8.63726529   3093.48772953 5469.98286572 1850.67586518      0.00000000    0.00000000    0.00000000
    1    5.40426302    2.85190267   -8.68424247     10.23272464  -75.10226277  -29.76655787      0.00000000    0.00000000    0.00000000
    1    6.41368870    4.39208148   -8.46493211     -2.50649113   -6.77235263    2.16824371      0.00000000    0.00000000    0.00000000
    8    1.11308724    6.67996527   -6.32708743  -5099.81229812 2996.79992018  676.54232476      0.00000000    0.00000000    0.00000000
    1    1.99720029    7.12733908   -6.20271049     32.73813694  -18.41517915   -0.35977476      0.00000000    0.00000000    0.00000000
    1    0.15329590    6.93166410   -6.20050455      6.03255361    4.55292861   -4.15719414      0.00000000    0.00000000    0.00000000
    8    9.28853816    3.28724051   -2.97117680     -0.77170041    2.89425152   -0.25650459      0.00000000    0.00000000    0.00000000
    1    9.15334584    2.38421836   -2.56349020      1.04619738   -1.10232823   -6.81658967      0.00000000    0.00000000    0.00000000
    1    9.47716017    4.20875167   -2.63176911      0.13067570   -3.93299622   -1.95338730      0.00000000    0.00000000    0.00000000
    8    0.98781060    0.36341986    2.45556288    290.74064643 -137.33201211  403.40037217      0.00000000    0.00000000    0.00000000
    1    0.05947865   -0.00813683    2.46483295     -5.43940107  -29.44963810   59.76948784      0.00000000    0.00000000    0.00000000
    1    1.91183265   -0.00712798    2.54952878      6.51434254    2.53409029    0.04731475      0.00000000    0.00000000    0.00000000
    8    8.22470002   -4.57064368    3.59181413  -2160.15990176  988.69109600-4587.26562619      0.00000000    0.00000000    0.00000000
    1    8.68534074   -5.31344220    3.10525138     -2.43758339    1.28101574    6.54043721      0.00000000    0.00000000    0.00000000
    1    7.34363215   -4.10293644    3.52116140      1.89852537   -3.55634321    2.35207357      0.00000000    0.00000000    0.00000000
    8   -9.45563317    6.94037525   -6.58041465     -3.46061380    1.32507332   -2.44940671      0.00000000    0.00000000    0.00000000
    1    9.38912956    7.01402487   -7.56566971     -2.09574721   -3.09131007    1.82216764      0.00000000    0.00000000    0.00000000
    1   -8.69416505    6.67224743   -5.99030189     -0.56753683   -2.40717564   -0.92840807      0.00000000    0.00000000    0.00000000
    8    2.62467997    5.58952251   -4.55541054   -430.78398335-1245.11888264 1138.58400214      0.00000000    0.00000000    0.00000000
    1    3.51912885    5.93783187   -4.27491725    -18.58675461    4.93311509    0.82782837      0.00000000    0.00000000    0.00000000
    1    1.70533696    5.96897430   -4.65908532     -7.77770227   16.40602470    3.25472287      0.00000000    0.00000000    0.00000000
    8    6.03394636   -7.95902722   -0.98691242     32.63634887  -45.26861742  -79.20821641      0.00000000    0.00000000    0.00000000
    1    6.04229971   -7.02176348   -0.63855256     -7.14407880    4.11194826   14.52971291      0.00000000    0.00000000    0.00000000
    1    5.57672536   -8.81372543   -0.74103446     -4.73402554    7.67103379    4.26354246      0.00000000    0.00000000    0.00000000
    8   -2.78642428    4.64494387    3.66775654     26.67545259   39.76458490 -193.07811911      0.00000000    0.00000000    0.00000000
    1   -1.83907136    4.73135125    3.35951420     -0.08689467   10.27197098   -5.50328713      0.00000000    0.00000000    0.00000000
    1   -3.64148491    4.30355463    3.27753502      5.48037261    3.60596381   -0.36184448      0.00000000    0.00000000    0.00000000
    8    0.12928141   -6.55205609    6.03421842  -4565.07639317 1091.73061290  475.24764730      0.00000000    0.00000000    0.00000000
    1   -0.62259677   -5.96473487    5.73479524      1.75655168   -6.85223192   -2.48713333      0.00000000    0.00000000    0.00000000
    1    1.12943999   -6.48949814    6.04418208     32.05480746 -146.71137773 -129.15053777      0.00000000    0.00000000    0.00000000
    8    4.39925252   -6.61811185   -4.01792765     43.05154455   21.49691330   82.47524865      0.00000000    0.00000000    0.00000000
    1    5.04145167   -6.32828898   -4.72752614      4.84687687   -6.89786714    6.70027082      0.00000000    0.00000000    0.00000000
    1    3.66157706   -6.18905651   -3.49667306      2.32800154   -5.39690794    0.39712166      0.00000000    0.00000000    0.00000000
    8    5.63734309   -0.28714598    1.20141415     64.11563108 6321.47238047 4179.01315647      0.00000000    0.00000000    0.00000000
    1    5.89164919    0.66607310    1.37233718     16.78169749   -2.71080718    3.88686039      0.00000000    0.00000000    0.00000000
    1    5.82666726   -0.96322750    0.48937755     39.06459165   -0.58720270    3.11331803      0.00000000    0.00000000    0.00000000
    8    0.86615965   -0.03048577   -2.18982006     -3.07696482    7.80394799    9.23222908      0.00000000    0.00000000    0.00000000
    1    1.31947249    0.76814210   -1.79401340      4.05576647   -3.41278946   -3.18775339      0.00000000    0.00000000    0.00000000
    1   -0.03895603   -0.23179241   -2.56426300      1.79672101   -0.72878653   -2.29563796      0.00000000    0.00000000    0.00000000
    8   -1.47011746    7.83317676    2.85995026      6.56082443   -0.45367813   -5.34651291      0.00000000    0.00000000    0.00000000