 BEGIN_INFO
   #
   # This is a XCRYSDEN-Structure-File
   # aimed for Visualization of Fermi Surface
   #
   # Case: Tight-binding calculation
   #
   # Launch as: xcrysden --xsf HICOLM.XSF
   #
 END_INFO
 # estrutura final
CRYSTAL
PRIMVEC
      14.43164368       0.00000000       0.00000000
       0.00000000      14.43164368       0.00000000
       0.00000000       0.00000000      14.43164368
PRIMCOORD
  300    1
    8    2.40003452    2.43585530    0.92346778    -25.18690142   -7.35174664   -2.47226338      0.00000000    0.00000000    0.00000000
    1    3.22625524    1.88038213    0.89074664     12.89950483    4.71957574    2.44507676      0.00000000    0.00000000    0.00000000
    1    2.27793223    2.61547421    1.94315932     14.72945709    7.61078216    1.97548071      0.00000000    0.00000000    0.00000000
    8    2.66065999   -4.59341968   -1.82055214     63.03994078    4.25178999   37.19744940      0.00000000    0.00000000    0.00000000
    1    2.75530613   -5.57219318   -2.20703771      3.31379534   -9.19725763   -5.59130782      0.00000000    0.00000000    0.00000000
    1    3.57546170   -4.16861050   -2.13019320      5.63494411    6.25736293    3.85846756      0.00000000    0.00000000    0.00000000
    8    5.08596083   -6.27030708   -5.65609911     31.06862691  -10.67357688   20.91529233      0.00000000    0.00000000    0.00000000
    1    4.09089763   -5.97874590   -5.44519255     -9.65897744   -0.01564408   -3.78817657      0.00000000    0.00000000    0.00000000
    1    5.18398901   -5.81267387   -6.59428375     -3.71987973   -6.02945005  -11.33893242      0.00000000    0.00000000    0.00000000
    8    5.27068550   -0.64213621    5.11237491     -5.34173830   18.57257962    9.85048578      0.00000000    0.00000000    0.00000000
    1    5.91779708   -1.35188753    5.38052760      4.11004640  -13.12760490    0.27173996      0.00000000    0.00000000    0.00000000
    1    4.68978003   -0.87864333    4.32695670     -5.29715613   -4.67310892   -5.62010456      0.00000000    0.00000000    0.00000000
    8    0.64979922    2.90925772   -4.82309908     10.67886006   -2.79284865   23.85355253      0.00000000    0.00000000    0.00000000
    1    0.77140037    3.25886986   -5.78637192     -5.46967266   -2.72341873  -14.19249103      0.00000000    0.00000000    0.00000000
    1    0.71040604    1.92016755   -4.98762291     -6.88770938   -2.83012026  -14.56887712      0.00000000    0.00000000    0.00000000
    8    1.88767252    2.57195763   -1.86530574    -11.31414898   18.29427185   -9.11222826      0.00000000    0.00000000    0.00000000
    1    1.82481565    1.78443571   -1.18744623      6.73841558   -3.81206358    7.75465476      0.00000000    0.00000000    0.00000000
    1    1.38651778    2.21572301   -2.72013631     12.87240969   -1.33413633   -4.07492496      0.00000000    0.00000000    0.00000000
    8    5.13271153    2.07950441    0.03101708     -3.04959622  -20.49711130    6.25245408      0.00000000    0.00000000    0.00000000
    1    4.86700882    1.88565805   -0.98300408     -8.89724427    0.09447387  -12.07317119      0.00000000    0.00000000    0.00000000
    1    5.50183884    3.05908388   -0.03477220    -12.07685051    4.05388852   -1.35921679      0.00000000    0.00000000    0.00000000
    8   -0.33317346    4.22000279   -0.58521032     -7.23830457   23.55605627    2.91669521      0.00000000    0.00000000    0.00000000
    1    0.44957092    3.71454607   -1.00555128     11.72576299   -9.00708921   -1.41130036      0.00000000    0.00000000    0.00000000
    1   -0.65098969    3.45891198   -0.00321676      2.28529021  -12.90682747    5.76583126      0.00000000    0.00000000    0.00000000
    8    0.39829886   -4.69126913   -2.58249059    -85.22078111  -11.89062557  -53.15935929      0.00000000    0.00000000    0.00000000
    1    0.33191868   -5.30393522   -1.75105757      7.08852472   -4.65313423    5.93320228      0.00000000    0.00000000    0.00000000
    1    0.34154517   -3.67071618   -2.27509111      0.18752344   14.71211311   12.53586475      0.00000000    0.00000000    0.00000000
    8   -4.06695757    2.87212941   -0.05374778      7.11150638  -24.52494518   24.97892826      0.00000000    0.00000000    0.00000000
    1   -4.60891688    2.02679380    0.03856069     -7.02051365   -7.63217464   -3.16532940      0.00000000    0.00000000    0.00000000
    1   -4.89294971    3.42257694   -0.33763297     -4.95385265    6.37067519   -6.30342708      0.00000000    0.00000000    0.00000000
    8   -1.41088516    2.17746583    1.40886726     19.91839245  -13.67711766  -34.58154377      0.00000000    0.00000000    0.00000000
    1   -2.44387309    1.98673012    1.17131172     -6.26825358   -3.94694264   -3.77486434      0.00000000    0.00000000    0.00000000
    1   -1.20309206    1.18643406    1.29192830      0.28809618   -8.11608735   -3.89676682      0.00000000    0.00000000    0.00000000
    8    3.30815332    6.45613080   -0.10210674     -8.06701941   13.35708163   18.52372984      0.00000000    0.00000000    0.00000000
    1    3.22185291    6.27436273   -1.11008272     -0.06242764   -2.45756568  -11.52402706      0.00000000    0.00000000    0.00000000
    1    4.10093822    5.84043420    0.09723198    -17.26097320   -9.21303249    3.10246956      0.00000000    0.00000000    0.00000000
    8   -1.58864412   -3.73692456    4.17755844    -19.18366183    5.72121671   11.83048256      0.00000000    0.00000000    0.00000000
    1   -1.92350497   -4.37340186    3.45407615     -1.72471515  -13.02241153   -9.58453087      0.00000000    0.00000000    0.00000000
    1   -0.98298400   -3.18504465    3.60185550      4.58654794    3.50550102  -12.52223707      0.00000000    0.00000000    0.00000000
    8    3.51415980    7.02695065    7.05631394    -28.77352368   -4.60446797  -28.09006212      0.00000000    0.00000000    0.00000000
    1    3.28199368    6.47280060   -6.54922395     15.07902848   -5.98349577   -2.72299306      0.00000000    0.00000000    0.00000000
    1    4.52087504    7.03138563    7.19087264      5.36191698   -5.67140831    1.62826445      0.00000000    0.00000000    0.00000000
    8   -7.12021004    2.94586495    1.40711114     21.19206286   -3.71665942   23.99728046      0.00000000    0.00000000    0.00000000
    1   -6.59427753    2.39842829    0.72912255     -4.99915909   -9.35265750   -6.45715574      0.00000000    0.00000000    0.00000000
    1    6.70313052    3.55199155    0.83568680     -4.36859237   10.19561875    8.18123958      0.00000000    0.00000000    0.00000000
    8   -3.02392281    4.63921547   -1.67770650     -4.74841062    5.99958527  -39.89212117      0.00000000    0.00000000    0.00000000
    1   -2.49507128    3.75993702   -1.73424297     13.42582077   -1.97951375   11.60138179      0.00000000    0.00000000    0.00000000
    1   -2.71386183    5.08777142   -0.79313426      2.74903446    2.39496640    8.66261834      0.00000000    0.00000000    0.00000000
    8   -0.03913939   -2.21893850    5.79989602    -10.42401961   16.41383230   19.44082498      0.00000000    0.00000000    0.00000000
    1    0.45186883   -2.85436121    5.22487839      2.35606874   -1.15739142   -0.47911213      0.00000000    0.00000000    0.00000000
    1   -0.67357102   -1.89805574    5.07830282      4.38538268   -0.13893582   -4.46557894      0.00000000    0.00000000    0.00000000
    8   -6.02211114    6.52485866    2.83462685    -25.80183954    2.08141532   18.89633395      0.00000000    0.00000000    0.00000000
    1   -6.04470376   -7.19791762    2.09069195      5.76592148    7.80461899  -14.15801901      0.00000000    0.00000000    0.00000000
    1   -4.99853017    6.53759916    2.96392866      7.56413810   -2.30682413   -0.28765512      0.00000000    0.00000000    0.00000000
    8   -2.97617671   -1.81817697    0.82316580     36.83137972   11.54606852   11.33382660      0.00000000    0.00000000    0.00000000
    1   -3.78668387   -2.32145705    1.25815230     -8.44869472   -1.58364051   -8.91654944      0.00000000    0.00000000    0.00000000
    1   -2.77012253   -2.49290711    0.08384178     -7.07612382   -5.42494824   -6.27329989      0.00000000    0.00000000    0.00000000
    8   -2.40826087    1.17134654   -5.18283010     14.36628121   10.68138810   -7.39164057      0.00000000    0.00000000    0.00000000
    1   -3.14837523    1.13163660   -5.83578844     -4.52873651  -12.28771511    3.43462123      0.00000000    0.00000000    0.00000000
    1   -2.50258698    0.28691999   -4.64420893     -6.89324913  -10.17225238   -1.58244274      0.00000000    0.00000000    0.00000000
    8   -1.33618359    0.77842586    5.48811996    -10.52377941  -12.87553166    4.29533247      0.00000000    0.00000000    0.00000000
    1   -0.79050598    1.03617369    4.64681968      7.91810083    6.37616111   -9.30808522      0.00000000    0.00000000    0.00000000
    1   -1.60431972    1.70901994    5.78256922      0.22023076    5.42240337   -2.30911030      0.00000000    0.00000000    0.00000000
    8   -4.70179719    5.41386227    0.72275504      8.64769124    5.09662426    8.11735606      0.00000000    0.00000000    0.00000000
    1   -5.41494108    5.50441128    0.00009756      1.22236359    2.13855745   -6.69753604      0.00000000    0.00000000    0.00000000
    1   -4.90580146    4.55747309    1.22169960     -5.41124652   -3.06153047    4.95004736      0.00000000    0.00000000    0.00000000
    8    3.41685419    2.77327851    4.38671331    -24.70966191   21.63582140    8.86154005      0.00000000    0.00000000    0.00000000
    1    3.14222221    1.85056661    4.79754244      8.80592867  -15.91257670    4.39241071      0.00000000    0.00000000    0.00000000
    1    4.40620840    2.66159540    4.51122933     11.55684169  -11.94224563   -2.43805500      0.00000000    0.00000000    0.00000000
    8   -2.33396063    4.13154108    2.59606374    -15.49475202   67.28755255   42.04108725      0.00000000    0.00000000    0.00000000
    1   -1.70821011    4.31072013    1.76218692      4.57779937  -16.25842306   -6.08121004      0.00000000    0.00000000    0.00000000
    1   -3.13090149    3.58143132    2.18666190     -4.74739447   -8.49253322    0.50621330      0.00000000    0.00000000    0.00000000
    8   -5.04490020   -4.24820839    3.44059789    -25.87346845   12.09289421   28.14150250      0.00000000    0.00000000    0.00000000
    1   -4.07933932   -3.92519410    3.32916715      3.64413414   -8.71889172   -7.60826156      0.00000000    0.00000000    0.00000000
    1   -5.24416433   -4.36525579    2.45780412      3.69211834   -5.60422630  -11.86142532      0.00000000    0.00000000    0.00000000
    8   -5.05051575    4.60340838   -4.27182831     18.76732229   -0.15037710   -3.75925181      0.00000000    0.00000000    0.00000000
    1   -4.79633790    4.46607414   -3.27371504      1.11113365    4.05956122    6.88160773      0.00000000    0.00000000    0.00000000
    1   -6.06634878    4.82797175   -4.15658043     -5.20187754   -0.59433124   -6.58426653      0.00000000    0.00000000    0.00000000
    8    1.59015269   -5.53407237    5.58865848      3.16611592   28.01397274    0.44842081      0.00000000    0.00000000    0.00000000
    1    2.25200023   -6.33316943    5.56283367      1.31162345   -9.02545290    2.89200515      0.00000000    0.00000000    0.00000000
    1    0.68162240   -5.94326391    5.57822346     -0.09958848  -14.07504553   -1.37616037      0.00000000    0.00000000    0.00000000
    8   -3.04808755   -5.71495551    2.34643310      9.62740347   37.19392585    6.79556351      0.00000000    0.00000000    0.00000000
    1   -3.51024726   -6.63978709    2.50037448      4.36165247   -6.30809258   -0.45940612      0.00000000    0.00000000    0.00000000
    1   -2.36072609   -5.95842350    1.62967410     -1.78531889  -18.25124647   -4.27420160      0.00000000    0.00000000    0.00000000
    8   -2.16050756    6.51890606    1.07033562     18.12516738   19.77719105  -19.49770790      0.00000000    0.00000000    0.00000000
    1   -1.29544521    6.32042921    1.64044818     10.49749235   -4.05667018   10.08188737      0.00000000    0.00000000    0.00000000
    1   -2.83839155    5.84206197    1.48123398    -11.74658252   -9.43818024    2.35871529      0.00000000    0.00000000    0.00000000
    8   -5.95328020   -5.78633452    0.53123387      9.52084902   -5.53489030   28.27465672      0.00000000    0.00000000    0.00000000
    1   -6.33728531   -5.04319685   -0.06492934    -10.13177462    3.06691497  -10.08865528      0.00000000    0.00000000    0.00000000
    1   -5.78990857   -6.49341159   -0.16414582      3.45799910   -0.89556010  -11.22318322      0.00000000    0.00000000    0.00000000
    8    6.83106549   -3.00104079    4.56523122    -20.80232778   -9.58732503   12.93870690      0.00000000    0.00000000    0.00000000
    1    6.91864053   -2.25334910    3.87511740     15.82642635    7.87514621  -12.97572728      0.00000000    0.00000000    0.00000000
    1   -6.64718480   -3.36102912    4.34148398     15.92406301    1.41380856   -9.98493975      0.00000000    0.00000000    0.00000000
    8   -6.01664855   -6.83205751    5.33471963    -18.74317496   22.38777718   31.86825673      0.00000000    0.00000000    0.00000000
    1   -5.90775586   -6.23397863    4.45732935      8.17576171   -3.33523222   -9.97724643      0.00000000    0.00000000    0.00000000
    1   -6.13013732    6.62450958    4.97617082      8.27535929   -4.49213336  -10.44021022      0.00000000    0.00000000    0.00000000
    8   -6.91978281    1.95703846   -3.52673905     -2.16253186  -36.87224551   11.06552114      0.00000000    0.00000000    0.00000000
    1    7.14207728    2.77021303   -3.07896158      0.89852441   11.28690553   -5.07221557      0.00000000    0.00000000    0.00000000
    1   -6.00988878    1.97113751   -3.06138104     13.65505068    5.64984729  -10.15150381      0.00000000    0.00000000    0.00000000
    8    1.78356844   -2.87166112    0.73339459    -28.96032146   33.62613690    1.49096328      0.00000000    0.00000000    0.00000000
    1    2.03275681   -3.82142749    0.30681859      9.94863663   -6.94224771   -0.48104957      0.00000000    0.00000000    0.00000000
    1    2.25973698   -2.92759052    1.63596049     13.31872421   -8.88953907    5.16575755      0.00000000    0.00000000    0.00000000
    8    6.20319753   -5.25746628   -1.17364130     19.45058214   -7.41496353   -4.24614101      0.00000000    0.00000000    0.00000000
    1    6.12707916   -6.07170370   -1.81314267     -9.90395462   -0.03392277   -2.55442118      0.00000000    0.00000000    0.00000000
    1    5.22500567   -4.95042735   -1.28197861     -4.06213529    5.36308690    3.13641247      0.00000000    0.00000000    0.00000000
    8    6.31571470    3.92334201   -4.80145971    -17.61305725   20.56314938   15.97013411      0.00000000    0.00000000    0.00000000
    1    5.81521298    3.23749826   -5.38386682      0.77061923   -6.78711115   -4.96896340      0.00000000    0.00000000    0.00000000
    1    6.66434359    4.38265471   -5.61874997      9.10227995    2.43541060   -9.73933403      0.00000000    0.00000000    0.00000000
    8   -3.04714176   -5.52850170   -4.52870794    -19.29899920    5.85008266  -10.77946620      0.00000000    0.00000000    0.00000000
    1   -4.01220769   -5.67486017   -4.33397336      0.46526811   -0.39314024    5.18163519      0.00000000    0.00000000    0.00000000
    1   -2.54083364   -6.26376118   -3.97427637    -12.41040409   -5.38471938    9.69379491      0.00000000    0.00000000    0.00000000
    8   -3.42903201    6.70207491    4.54365771     -6.85541358   -4.12721313  -26.59327174      0.00000000    0.00000000    0.00000000
    1   -2.87992608    5.84804829    4.32205048     -2.90355582    4.88621371    2.33817259      0.00000000    0.00000000    0.00000000
    1   -2.90876030    7.02553146    5.34959854      9.02719364    3.74433420   15.00890803      0.00000000    0.00000000    0.00000000
    8   -2.09395189    5.72136560   -4.21531296      9.03931027   25.89125364   -6.99280306      0.00000000    0.00000000    0.00000000
    1   -2.85335094    4.98065381   -4.49210808     -3.21328397   -7.89736764    4.39189302      0.00000000    0.00000000    0.00000000
    1   -1.90412905    5.35425909   -3.29849811     -5.45916132   -7.73614753   10.02453585      0.00000000    0.00000000    0.00000000
    8   -1.29315268    4.71361528    5.37435404     -3.98929862  -39.77869608  -15.11205013      0.00000000    0.00000000    0.00000000
    1   -2.15537430    4.87213028    5.92893720     -7.57965848    5.63944381   12.21899813      0.00000000    0.00000000    0.00000000
    1   -1.81754392    4.84243650    4.49944016      4.10767794  -12.42486711   -6.71796048      0.00000000    0.00000000    0.00000000
    8    7.07321927   -0.32160627   -5.64648760     10.19041672  -15.21183299   -9.96562899      0.00000000    0.00000000    0.00000000
    1    7.11476888    0.46513995   -4.99102910      0.38400364   14.13844173   11.13285043      0.00000000    0.00000000    0.00000000
    1    6.03929420   -0.36468224   -5.49870552     -6.37290613    5.91978301    1.28058159      0.00000000    0.00000000    0.00000000
    8   -5.73319273    0.83051226    4.95593352      1.46461599  -18.23014825   -8.47054795      0.00000000    0.00000000    0.00000000
    1   -5.29621393    1.61261436    5.44800304      5.56035105    0.35875939   15.80814007      0.00000000    0.00000000    0.00000000
    1   -5.09917415    0.05740101    5.17684751     11.86532384   -2.71301498    6.15136279      0.00000000    0.00000000    0.00000000
    8    4.96822796   -5.05026311    2.59037937      6.28567233   -1.76505382   27.30015508      0.00000000    0.00000000    0.00000000
    1    4.24630389   -4.77919406    1.87576367     -7.16769944   -6.60465637  -14.48252280      0.00000000    0.00000000    0.00000000
    1    5.58759582   -4.19981373    2.72802856      6.96541964    7.25331625   -7.33029986      0.00000000    0.00000000    0.00000000
    8   -5.05651684    6.83340279   -1.86254843    -26.02315474   -5.37412963   11.97684762      0.00000000    0.00000000    0.00000000
    1   -4.23196661   -7.06054960   -2.13228174     13.17099441    4.39814124    0.26221430      0.00000000    0.00000000    0.00000000
    1   -5.63062158    7.10811913   -2.68230897      1.07990682    7.42960158  -14.32163664      0.00000000    0.00000000    0.00000000
    8    3.44568003   -2.57359379    3.31834486     -4.42711837   16.15807000  -25.95686991      0.00000000    0.00000000    0.00000000
    1    3.74724509   -3.58641636    3.11514294      1.54962035  -11.53130620   10.91955195      0.00000000    0.00000000    0.00000000
    1    3.32351780   -2.66983068    4.36606322     -4.13574469   -4.64236896   19.90091573      0.00000000    0.00000000    0.00000000
    8    2.45591840   -5.56853778    1.22616773      9.70394930   30.13809675    5.83322284      0.00000000    0.00000000    0.00000000
    1    2.15571167   -5.51080769    0.19164584      1.94206307  -13.29332463  -11.65856616      0.00000000    0.00000000    0.00000000
    1    2.49898875   -6.59249330    1.20498559      9.96144288    1.76657026  -15.05079957      0.00000000    0.00000000    0.00000000
    8   -2.83556736   -1.85715735   -5.19313856     11.30763806   15.68307779   23.86750805      0.00000000    0.00000000    0.00000000
    1   -3.68009470   -2.21780696   -5.63376182     13.56878187   -7.21779575    0.42290745      0.00000000    0.00000000    0.00000000
    1   -2.42165168   -2.36683107   -5.98604417      0.89366692  -11.57696967  -11.30430750      0.00000000    0.00000000    0.00000000
    8   -2.71414481   -3.90175877    7.09444700    -20.46247212   22.56144924   11.63384959      0.00000000    0.00000000    0.00000000
    1   -2.46254912   -3.85125454    6.10011959     12.58769885   -6.43654807  -10.52957929      0.00000000    0.00000000    0.00000000
    1   -2.43104910   -4.85853340   -7.10612575      2.86064440   -5.68954595   -6.64199659      0.00000000    0.00000000    0.00000000
    8    1.93380490    5.55374719    4.84175514     15.82616703   -5.69139654  -29.42730828      0.00000000    0.00000000    0.00000000
    1    2.14786006    4.54150655    4.92542452      2.21306637   -8.02213054    8.43354639      0.00000000    0.00000000    0.00000000
    1    2.48610088    5.85516235    5.61419715      7.96575191    3.40246939    9.45575465      0.00000000    0.00000000    0.00000000
    8   -4.22611685    2.81076187    6.74891433     -6.90599805  -15.15142600  -24.34603801      0.00000000    0.00000000    0.00000000
    1   -4.22126225    2.03132254   -7.05537923     -1.51712784   -0.16756711    6.38697225      0.00000000    0.00000000    0.00000000
    1   -3.82977999    3.52214601   -7.09270024      2.56442006   13.43074471    8.02741980      0.00000000    0.00000000    0.00000000
    8    4.25681744    4.22575955   -2.48703610     20.21715385   21.57938168   13.83980031      0.00000000    0.00000000    0.00000000
    1    3.55356856    3.52934818   -2.45662153    -17.29556490  -10.09278296    2.16592148      0.00000000    0.00000000    0.00000000
    1    4.64730552    3.96872033   -3.40111501      1.55059055   -4.46301422  -10.49527133      0.00000000    0.00000000    0.00000000
    8   -2.44241811   -2.64058241   -2.24206597     -1.95981439    1.88902796   23.28272473      0.00000000    0.00000000    0.00000000
    1   -3.30079168   -3.21556690   -2.12248473     -7.34691663   -4.87222049  -10.44120002      0.00000000    0.00000000    0.00000000
    1   -2.74511075   -2.17052190   -3.09518321     -3.68861500   -1.24307822  -16.28668050      0.00000000    0.00000000    0.00000000
    8    5.70197641    5.11369792    0.55448424     19.66421315  -16.69496550  -31.42729461      0.00000000    0.00000000    0.00000000
    1    5.34465308    5.60668919   -0.28468615      3.76906310    6.69456738   -3.22484612      0.00000000    0.00000000    0.00000000
    1    5.20880610    5.63790881    1.34458761     -7.73541686    1.50406279   17.98511049      0.00000000    0.00000000    0.00000000
    8    3.94364385    0.94630386   -2.74861796     18.04950796    1.66872272   16.29129199      0.00000000    0.00000000    0.00000000
    1    4.23937144    1.54507480   -3.44300465     -2.60867196   -3.20209649  -12.01629232      0.00000000    0.00000000    0.00000000
    1    3.41685694    0.35500650   -3.41359878     -4.06714039   -3.00382947   -3.45376364      0.00000000    0.00000000    0.00000000
    8    4.18132343   -7.12727134   -2.69679750      6.76356551   16.60258064   15.09497550      0.00000000    0.00000000    0.00000000
    1    3.83473129   -7.11166667   -3.67877111     -7.18115595   -7.95328727   -9.58736121      0.00000000    0.00000000    0.00000000
    1    4.72926677    6.41066740   -2.75187063     -4.00068411  -11.42506403   -8.37484662      0.00000000    0.00000000    0.00000000
    8   -3.88159305    1.90868153   -2.66840488    -30.28647266   -9.82382950   -3.41614998      0.00000000    0.00000000    0.00000000
    1   -2.88881492    1.83250032   -2.79499865     16.34010307    2.22937060   -2.82507903      0.00000000    0.00000000    0.00000000
    1   -3.95713614    2.80030565   -2.20715018     10.68386208    6.53747667    5.79869270      0.00000000    0.00000000    0.00000000
    8    5.56739039    4.67302062    6.03253132      0.30530644    0.98505901   24.45168039      0.00000000    0.00000000    0.00000000
    1    5.25219269    5.15628229    5.16185375      3.25187680    7.46388183   -9.21716905      0.00000000    0.00000000    0.00000000
    1    5.92451646    3.87271488    5.53239033      6.70149905   -8.40823769  -11.41631343      0.00000000    0.00000000    0.00000000
    8    3.93817527   -1.00546166   -5.22478504     22.00259355   13.29795984   -2.34397591      0.00000000    0.00000000    0.00000000
    1    3.03675610   -0.90520972   -4.75549851    -18.01555141   -9.02272490    4.95951736      0.00000000    0.00000000    0.00000000
    1    3.59703762   -1.73778074   -5.92049332     -0.01374418   -7.09490473    6.25967087      0.00000000    0.00000000    0.00000000
    8   -0.13009051   -1.44712470    2.69930535    -13.83806411  -19.92136974    8.71647015      0.00000000    0.00000000    0.00000000
    1    0.20163301   -0.51922623    2.32739137      4.88756284   12.44504410    3.94727001      0.00000000    0.00000000    0.00000000
    1    0.56685944   -2.08713773    2.26052204      8.09519165    0.62874915   -7.05720834      0.00000000    0.00000000    0.00000000
    8    0.05022678   -1.89402394   -1.57038523     25.94583890  -40.02492439  -25.19322507      0.00000000    0.00000000    0.00000000
    1   -0.86103785   -1.59327347   -1.23652819    -11.09047066   -2.07068859  -10.08646059      0.00000000    0.00000000    0.00000000
    1    0.53885182   -1.83776589   -0.65925536     11.91728627  -22.08076347   -9.35591024      0.00000000    0.00000000    0.00000000
    8   -0.06483011    7.11598504   -1.07209327     14.48403514   27.42253216   -5.47403633      0.00000000    0.00000000    0.00000000
    1   -0.72794093   -7.20285606   -0.30932466     -1.82496501  -18.55788605    7.88307877      0.00000000    0.00000000    0.00000000
    1    0.27500809    6.14391348   -0.99926369     -5.03432231  -15.68662208    5.88507659      0.00000000    0.00000000    0.00000000
    8    2.74819770    0.62946065    6.49673538      3.40367366   25.60627458   -5.47736883      0.00000000    0.00000000    0.00000000
    1    3.64435831    0.07991599    6.30811836      7.87894497  -13.17920124   -7.11167854      0.00000000    0.00000000    0.00000000
    1    2.20646629   -0.14105692    6.91283155     -8.45124058   -8.74122462   -2.31577836      0.00000000    0.00000000    0.00000000
    8    6.52442288    2.13752155    4.35793558    -34.12276767   35.75600979    2.76617107      0.00000000    0.00000000    0.00000000
    1    6.66069218    1.17142573    4.56078300      8.98457456  -11.83912292    2.99427499      0.00000000    0.00000000    0.00000000
    1    6.94792777    2.18935310    3.42896958     -1.55497513   -4.31466071   -8.78458654      0.00000000    0.00000000    0.00000000
    8    0.68545594    1.38696923    3.01228388     -2.63595832  -13.41730193   17.13059639      0.00000000    0.00000000    0.00000000
    1    0.70994125    1.76546766    2.05678036     -2.31642648    7.33110672   -9.61988485      0.00000000    0.00000000    0.00000000
    1    1.69394895    1.41249072    3.22856273     10.16647425   -2.82564303   -0.64403855      0.00000000    0.00000000    0.00000000
    8   -6.38383653    0.87277788   -0.67039248     20.41991996   13.95574760   10.17545441      0.00000000    0.00000000    0.00000000
    1    7.14888612    0.47190492   -0.93023741     -8.83513874   -5.93918947   -0.23549516      0.00000000    0.00000000    0.00000000
    1   -6.20653909    1.49666621   -1.46944444     -4.77999698   -5.00119411   -6.09461013      0.00000000    0.00000000    0.00000000
    8    0.18819402    0.08953100   -6.48597241     24.55482264    3.98207563   29.00565867      0.00000000    0.00000000    0.00000000
    1    0.08939487   -0.61410594    7.19775581     -9.54763335   -9.20788871  -13.77704319      0.00000000    0.00000000    0.00000000
    1   -0.77107798    0.50265326   -6.47862858    -11.84934905    1.28934451   -5.39587262      0.00000000    0.00000000    0.00000000
    8   -6.66195970    4.19577006   -1.34960268     11.34391606  -22.39061368   -1.46604282      0.00000000    0.00000000    0.00000000
    1    6.94778954    4.46442090   -0.77116223     -7.95853534   11.67875690    4.73897443      0.00000000    0.00000000    0.00000000
    1   -6.66370106    5.06698041   -1.87478526      0.87288288   10.39031692   -0.14560429      0.00000000    0.00000000    0.00000000
    8    0.88279176    6.85005704    2.19744210    -23.30901030   -4.47461715   -8.24647768      0.00000000    0.00000000    0.00000000
    1    1.76559581    6.86294856    1.65742083     -2.31336716  -15.39633870    5.89172938      0.00000000    0.00000000    0.00000000
    1    1.28015642    6.48550066    3.07335549      6.11697710   -4.67144581   11.88207359      0.00000000    0.00000000    0.00000000
    8   -6.05182939   -4.39442501    6.97012313     -1.41892024   13.69149388   17.95141337      0.00000000    0.00000000    0.00000000
    1   -6.25836750   -5.29113564    6.54715233      6.32105785  -16.58705530  -11.79737584      0.00000000    0.00000000    0.00000000
    1   -5.12788116   -4.19736147    6.51991917      4.37669479   -7.27140518   -9.64277029      0.00000000    0.00000000    0.00000000
    8   -5.30010098   -3.10424474   -5.07779050    -12.05881251   10.46000635   15.30172336      0.00000000    0.00000000    0.00000000
    1   -5.13509553   -2.29797290   -5.67373432    -10.97239601   -1.49923106   -3.78672621      0.00000000    0.00000000    0.00000000
    1   -5.12526918   -3.77453353   -5.86195528     -4.81966288   -7.54615861  -14.93422930      0.00000000    0.00000000    0.00000000
    8   -6.20947773   -1.14575058    2.74962741    -20.66500512   -5.82107870   10.25656633      0.00000000    0.00000000    0.00000000
    1   -5.58542034   -1.28115999    1.97672406      2.62265057    0.56561177  -12.68478685      0.00000000    0.00000000    0.00000000
    1   -5.61906133   -0.51142639    3.29895394      6.90675643    7.23001362    3.27909958      0.00000000    0.00000000    0.00000000
    8    4.59563027   -3.66734245   -6.55348433     -7.01443535   14.45489765    9.35989873      0.00000000    0.00000000    0.00000000
    1    3.82793743   -3.99116315   -5.95366692     -0.70754548   -1.89319500    1.04754764      0.00000000    0.00000000    0.00000000
    1    5.12928159   -4.51723042   -6.81018459      2.22783085   12.48480885   -9.49910826      0.00000000    0.00000000    0.00000000
    8   -5.87618806   -3.69206112   -2.45033102     19.70639692    0.97551071   22.80016813      0.00000000    0.00000000    0.00000000