 BEGIN_INFO
   #
   # This is a XCRYSDEN-Structure-File
   # aimed for Visualization of Fermi Surface
   #
   # Case: Tight-binding calculation
   #
   # Launch as: xcrysden --xsf HICOLM.XSF
   #
 END_INFO
 # estrutura final
CRYSTAL
PRIMVEC
      19.00000000       0.00000000       0.00000000
       0.00000000      19.00000000       0.00000000
       0.00000000       0.00000000      19.00000000
PRIMCOORD
  300    1
    8   -4.20094299    2.72766484   -8.56852933      1.46957163    5.07894395    2.31279123      0.00000000    0.00000000    0.00000000
    1   -4.77382499    3.53907384   -8.68424433     -0.00702557    0.12352192    0.18560376      0.00000000    0.00000000    0.00000000
    1   -4.19445999    1.93219684   -7.96259633     -0.22831016   -0.48958148    0.16124517      0.00000000    0.00000000    0.00000000
    8   -4.03584610   -8.29602252    6.08067995    -51.81189189    5.15606590   74.58892114      0.00000000    0.00000000    0.00000000
    1   -3.65784210   -9.17379952    5.78641995      1.33541334   -3.40636824   -2.62325048      0.00000000    0.00000000    0.00000000
    1   -3.66946310   -7.39044652    6.29436695      0.64638009    1.18904748   -0.59250753      0.00000000    0.00000000    0.00000000
    8   -7.11361364   -8.37178298    1.86392157     -0.03539710   -1.02647195   -0.98093192      0.00000000    0.00000000    0.00000000
    1   -7.38496664   -7.98042698    0.98461757      0.02198246    0.14391351    0.15384703      0.00000000    0.00000000    0.00000000
    1   -6.30943264   -8.84545598    2.22294057     -0.04514497    0.21897687    0.18660933      0.00000000    0.00000000    0.00000000
    8    6.30206131   -5.43001517   -3.72483494     -1.92977310   -2.60396728    8.37424670      0.00000000    0.00000000    0.00000000
    1    7.08894031   -5.99703817   -3.48137394      0.02951769    0.23026096    0.01135049      0.00000000    0.00000000    0.00000000
    1    5.43951931   -5.56754017   -4.21173694      0.59113504    0.11245039    0.05958657      0.00000000    0.00000000    0.00000000
    8    6.99922182    1.48896708    5.51029507      0.05389401   -0.10756694    0.00955245      0.00000000    0.00000000    0.00000000
    1    7.66976582    2.01081508    6.03756307     -0.03517412    0.04706533   -0.02988688      0.00000000    0.00000000    0.00000000
    1    6.43524182    1.65303108    4.70098907     -0.02562696    0.06259577   -0.00087462      0.00000000    0.00000000    0.00000000
    8   -9.17153158    5.88912526    2.43942839     -5.44156660   -6.19798918   -1.43416488      0.00000000    0.00000000    0.00000000
    1   -9.45375158    5.29597126    1.68544839      0.00862381    0.17007807   -0.03137996      0.00000000    0.00000000    0.00000000
    1   -9.25367858    6.86113226    2.65947539      0.05409394   -0.00629449   -0.57960979      0.00000000    0.00000000    0.00000000
    8   -6.07688108    8.00927442   -2.18405635      1.04766080   -0.60047582    0.53813623      0.00000000    0.00000000    0.00000000
    1   -6.53914408    7.12313042   -2.15197535      0.26575402    0.16584011   -0.21355578      0.00000000    0.00000000    0.00000000
    1   -6.34412408    8.96486942   -2.06002035     -0.26150375    0.24593048   -0.26981568      0.00000000    0.00000000    0.00000000
    8    3.06203191    9.46688898   -5.28228831     -0.18630836    0.00897554   -0.40388037      0.00000000    0.00000000    0.00000000
    1    2.54455591   -8.67980302   -5.34592431      0.02054235   -0.10024663    0.01224984      0.00000000    0.00000000    0.00000000
    1    2.99661291    8.62413098   -4.74801831      0.02182833    0.09207049    0.10289478      0.00000000    0.00000000    0.00000000
    8   -9.05081800   -4.31191075   -7.01169878     11.61418197  -71.93098708   78.85302167      0.00000000    0.00000000    0.00000000
    1    9.33235200   -3.58859775   -6.70136678     -1.51940500    0.06836556    0.39779442      0.00000000    0.00000000    0.00000000
    1   -9.12940200   -5.12725275   -7.58529078      0.73697911    0.57203361   -0.39559123      0.00000000    0.00000000    0.00000000
    8    5.96995242   -3.84109621    4.28342810      0.11610069    0.04985752   -0.16932978      0.00000000    0.00000000    0.00000000
    1    5.03350042   -3.49048021    4.29311110     -0.00389636   -0.05614642    0.05390715      0.00000000    0.00000000    0.00000000
    1    6.87400242   -3.47201221    4.06793310     -0.09275199   -0.03626756    0.07674420      0.00000000    0.00000000    0.00000000
    8    4.39303085   -8.62337010   -8.09005220      3.62053276   -3.65071562    1.33889864      0.00000000    0.00000000    0.00000000
    1    3.67487885   -9.31912510   -8.07787020     -0.09172241    0.03609335    0.01122790      0.00000000    0.00000000    0.00000000
    1    5.06934585   -8.27627010   -7.44037020     -0.02090703   -0.32355312   -0.04945414      0.00000000    0.00000000    0.00000000
    8   -9.13583076    2.24152809    2.13873940     -0.22265013   -0.09559080   -0.02565324      0.00000000    0.00000000    0.00000000
    1    9.48921024    3.16855209    2.13799340      0.06687510    0.03887792    0.13301450      0.00000000    0.00000000    0.00000000
    1    9.48988624    1.31424209    2.14297340      0.08236841   -0.04723388    0.03405022      0.00000000    0.00000000    0.00000000
    8    4.48555716   -7.64802308   -2.38986266    -12.01975209   64.01892411   21.79768821      0.00000000    0.00000000    0.00000000
    1    5.42723916   -7.92525808   -2.58049966     -0.13715442   -0.66607436   -0.36415898      0.00000000    0.00000000    0.00000000
    1    3.71352616   -7.30707608   -2.92623066      0.18135363   -0.12387502    0.01543238      0.00000000    0.00000000    0.00000000
    8    0.95667142    5.27096662    6.72248811     -0.02377624    0.04272171    0.00809130      0.00000000    0.00000000    0.00000000
    1    0.08176342    4.78966662    6.66907911      0.02626220   -0.05122028   -0.01976571      0.00000000    0.00000000    0.00000000
    1    1.86530642    5.07290662    7.09007711     -0.01137647   -0.00305665   -0.00093544      0.00000000    0.00000000    0.00000000
    8    5.67051457    9.49308445    3.52013188      0.11787167   -0.23512794    0.01697664      0.00000000    0.00000000    0.00000000
    1    4.69894857   -9.43235255    3.74477788     -0.09842597    0.16311892   -0.00146860      0.00000000    0.00000000    0.00000000
    1    6.40148457   -8.87240055    3.26905188     -0.07337103    0.08395878   -0.01490210      0.00000000    0.00000000    0.00000000
    8    1.08184244    9.46419567    0.96302496      0.03603460   -0.12468778   -0.06771199      0.00000000    0.00000000    0.00000000
    1    0.98744444   -8.54034433    0.95224596     -0.03414820    0.07026290    0.02206878      0.00000000    0.00000000    0.00000000
    1    0.52119244    8.68542467    0.68168196     -0.00084117    0.05094332    0.04251006      0.00000000    0.00000000    0.00000000
    8   -7.66384437    2.50387937   -3.58790265     22.62123344  -56.29510427   52.48481851      0.00000000    0.00000000    0.00000000
    1   -7.98192637    3.23050137   -2.97895965      2.14424101    0.91893869    2.92617178      0.00000000    0.00000000    0.00000000
    1   -6.79306037    2.24590737   -4.00641565      0.61063685    1.05400507   -1.71380057      0.00000000    0.00000000    0.00000000
    8   -1.48652586   -5.39574273   -6.36967294     -0.49686940   -0.16393853   -0.17905961      0.00000000    0.00000000    0.00000000
    1   -0.95272986   -6.23899773   -6.43252894      0.15768398    0.03321418   -0.07148044      0.00000000    0.00000000    0.00000000
    1   -2.05645186   -4.85727473   -6.99031994      0.51581424    0.11844857   -0.18221695      0.00000000    0.00000000    0.00000000
    8    6.44243278   -4.55966015    7.93571457      0.17232921   -0.02654383    0.35635053      0.00000000    0.00000000    0.00000000
    1    6.75299278   -3.82795915    8.54245457     -0.17536186    0.08401210   -0.22665364      0.00000000    0.00000000    0.00000000
    1    6.45400278   -5.55947415    7.95004257     -0.04387002   -0.03839580   -0.12578370      0.00000000    0.00000000    0.00000000
    8   -8.45896166   -9.23761960   -3.71058379      8.55454106   45.93018551  -30.35369257      0.00000000    0.00000000    0.00000000
    1   -7.88568466   -9.10778960   -4.51957379      0.06394580    0.14953145    0.08288347      0.00000000    0.00000000    0.00000000
    1   -9.38828466    9.43928540   -3.53187779      0.46748600   -0.35108734   -0.13300926      0.00000000    0.00000000    0.00000000
    8   -6.07216470   -3.07487678   -7.93773975     45.17554767   40.49417240  -14.40040705      0.00000000    0.00000000    0.00000000
    1   -6.60281770   -3.91883778   -7.85961075      0.39592978   -3.89867096   -0.42341253      0.00000000    0.00000000    0.00000000
    1   -5.10415270   -2.83921778   -8.02366675      1.23267346    0.50255600   -0.55484505      0.00000000    0.00000000    0.00000000
    8    1.66950914   -6.05696553   -9.67998949    -52.41716914   33.28995727  -44.87361269      0.00000000    0.00000000    0.00000000
    1    1.58076114   -7.05204053   -9.63623349      1.21199769    0.10594464    0.68958841      0.00000000    0.00000000    0.00000000
    1    1.04171614   -5.28055853   -9.73508049      0.41148394   -0.32152050    0.15491451      0.00000000    0.00000000    0.00000000
    8   -7.74087300    7.54532669    2.88891313      4.84820362    6.23720337    1.60479176      0.00000000    0.00000000    0.00000000
    1   -7.76493900    7.98239369    1.98982513      0.08029189    0.11847171   -0.03497868      0.00000000    0.00000000    0.00000000
    1   -8.41753700    7.24755469    3.56228113      0.47274810   -0.23091850    0.44690004      0.00000000    0.00000000    0.00000000
    8   -9.13885366    1.83579383   -7.20700835     -0.13439841   -0.13577066   -0.22356871      0.00000000    0.00000000    0.00000000
    1    9.45380934    0.93905883   -7.03406135      0.10076010    0.09344841    0.21265177      0.00000000    0.00000000    0.00000000
    1   -9.47145466    2.77668483   -7.27077635      0.01817822   -0.04747245    0.03126034      0.00000000    0.00000000    0.00000000
    8    7.22674744    0.65124216    0.08545281     -0.03877453    0.08144578    0.25138164      0.00000000    0.00000000    0.00000000
    1    6.31918844    0.78401216   -0.31288719      0.06649888   -0.04354244   -0.06815672      0.00000000    0.00000000    0.00000000
    1    7.89185744    1.22260116    0.56622881     -0.00391563    0.02991494   -0.17299324      0.00000000    0.00000000    0.00000000
    8    1.71846698   -1.53400526   -7.51420931     -0.01053443    0.02494155   -0.02460238      0.00000000    0.00000000    0.00000000
    1    1.01111298   -2.16623026   -7.83029431      0.01559163    0.00719098    0.04795227      0.00000000    0.00000000    0.00000000
    1    2.68834198   -1.59880626   -7.27945431      0.00074238   -0.03868699    0.00686538      0.00000000    0.00000000    0.00000000
    8    2.96018311   -6.87669384   -8.56574208     47.16423024  -28.70386323   43.15926308      0.00000000    0.00000000    0.00000000
    1    3.58528011   -6.86912184   -7.78525308      0.04996368   -0.34366096   -0.38073196      0.00000000    0.00000000    0.00000000
    1    2.65181211   -6.21257284    9.75321592      0.06191688   -0.11012463   -0.01974387      0.00000000    0.00000000    0.00000000
    8    2.66016455   -5.17430580   -4.36846647      0.16621460   -0.25491876   -0.14241557      0.00000000    0.00000000    0.00000000
    1    2.00007855   -5.92444080   -4.40783447     -0.13406636    0.12870120    0.05198579      0.00000000    0.00000000    0.00000000
    1    3.65299655   -5.09371180   -4.28039047     -0.13566753    0.23507277    0.16808390      0.00000000    0.00000000    0.00000000
    8   -6.21195092    2.62926386    3.43298882     -1.77251400   -0.31406385   -3.88561704      0.00000000    0.00000000    0.00000000
    1   -5.67879592    3.42321986    3.72512682     -0.32444525   -0.17388893    0.11857403      0.00000000    0.00000000    0.00000000
    1   -7.03002792    2.15369686    3.75633682     -0.04392886    0.06009522   -0.09456073      0.00000000    0.00000000    0.00000000
    8   -4.55116353   -6.45451347   -5.88421870      2.00406739   -2.43820025   -4.96277560      0.00000000    0.00000000    0.00000000
    1   -5.51242353   -6.17893747   -5.88184270     -0.06072743    0.19419150    0.28843933      0.00000000    0.00000000    0.00000000
    1   -3.66828953   -5.98495047   -5.88738170     -0.20512664   -1.07636785    0.58082511      0.00000000    0.00000000    0.00000000
    8   -6.71909901    5.97283137   -6.57007941    -39.43441078  -96.84032768   17.60975708      0.00000000    0.00000000    0.00000000
    1   -5.85720401    5.54979637   -6.29053641      0.10095165    0.42656876   -0.01556173      0.00000000    0.00000000    0.00000000
    1   -7.65172801    5.65732437   -6.74508241      0.12931605    0.11326510   -0.00869507      0.00000000    0.00000000    0.00000000
    8   -2.04419527   -1.57135623   -3.58172426      1.22731643   -0.28043883    0.96081888      0.00000000    0.00000000    0.00000000
    1   -2.20291827   -0.58840423   -3.48909726      0.09431293   -0.02091904    0.56892259      0.00000000    0.00000000    0.00000000
    1   -1.24624627   -2.17404823   -3.58397626      0.06627900   -0.13187388    0.05223672      0.00000000    0.00000000    0.00000000
    8   -4.09125952   -6.60686589   -8.25153392     40.14488877    5.05457474   53.89511439      0.00000000    0.00000000    0.00000000
    1   -4.93108552   -7.05592489   -8.55650092     -0.20761108    1.33490288   -1.24809161      0.00000000    0.00000000    0.00000000
    1   -3.85765552   -5.88244789   -7.60298592     -0.77602228   -1.19183676   -0.26777508      0.00000000    0.00000000    0.00000000
    8    4.80317798   -9.43042374   -2.98010953     12.18916498  -64.13791572  -21.40587316      0.00000000    0.00000000    0.00000000
    1    5.23436898    8.76272726   -3.38388553     -0.04741536    0.04673420    0.06188529      0.00000000    0.00000000    0.00000000
    1    4.24908898   -9.24068674   -2.16958453     -0.05473020    0.83384573    0.18414283      0.00000000    0.00000000    0.00000000
    8   -5.14662777   -5.85513220   -3.80252124     39.91200046  -52.75606644   -3.99140372      0.00000000    0.00000000    0.00000000
    1   -4.18225177   -5.68163720   -3.60290724      0.85597359    0.25219636   -0.18346846      0.00000000    0.00000000    0.00000000
    1   -5.83365177   -6.51981820   -3.50899924      1.75948747   -2.31248721    2.85701939      0.00000000    0.00000000    0.00000000
    8   -6.84214854   -3.73672817    2.93523191     60.15199825  -34.82947428  -38.29513853      0.00000000    0.00000000    0.00000000
    1   -7.07768354   -3.94744417    3.88396191      0.76852027   -0.43398108    2.24960888      0.00000000    0.00000000    0.00000000
    1   -7.30428654   -3.79167817    2.05014691     -0.18809976    0.04097504    0.16029805      0.00000000    0.00000000    0.00000000
    8    7.42824192   -3.46759294   -1.26411846      0.21357932   -0.00536333    0.38363095      0.00000000    0.00000000    0.00000000
    1    6.57389992   -3.98181694   -1.18901746     -0.13420654   -0.09027752   -0.23645422      0.00000000    0.00000000    0.00000000
    1    8.40188692   -3.69218994   -1.30335646     -0.25576087    0.03979835   -0.01463395      0.00000000    0.00000000    0.00000000
    8   -2.43113278   -7.98524241   -4.25425540    -22.34565450   57.87557991  -43.25812204      0.00000000    0.00000000    0.00000000
    1   -2.00962678   -7.62560541   -5.08669940     -0.23250532   -0.21280901    0.34984149      0.00000000    0.00000000    0.00000000
    1   -2.41459478   -8.85234541   -3.75643440      2.49916574   -1.35801561    2.03623986      0.00000000    0.00000000    0.00000000
    8   -3.57373671   -8.46591757   -1.31488971      9.05215687  -17.54923046  -33.99507901      0.00000000    0.00000000    0.00000000
    1   -3.40563771   -7.58929757   -0.86406171      0.00791579    0.27271708    1.14853543      0.00000000    0.00000000    0.00000000
    1   -3.42796471   -9.42954357   -1.09096571      0.08189359    0.25446415    0.04259331      0.00000000    0.00000000    0.00000000
    8   -8.65811932    8.16444145   -2.64162019     -7.37247707  -46.85172704   31.19182679      0.00000000    0.00000000    0.00000000
    1   -8.13513132    7.58654945   -2.01512819     -0.09500717    0.31679060   -0.08743929      0.00000000    0.00000000    0.00000000
    1   -9.44075232    8.03970645   -3.25145019      0.26414176   -0.33704037    0.02015935      0.00000000    0.00000000    0.00000000
    8   -0.00464167    2.57887993    2.85166919     -0.00026812    0.01233627    0.00765671      0.00000000    0.00000000    0.00000000
    1    0.97192133    2.37793293    2.77477119     -0.01152142    0.00942111    0.00873312      0.00000000    0.00000000    0.00000000
    1   -0.73542067    2.84708693    2.22398119      0.01314239   -0.01998332   -0.01643061      0.00000000    0.00000000    0.00000000
    8    1.08064135    1.13060895   -2.17865865     -0.03162829    0.06101023   -0.06331289      0.00000000    0.00000000    0.00000000
    1    1.30838635    0.18860095   -1.93224265      0.01265703   -0.01841943    0.00478035      0.00000000    0.00000000    0.00000000
    1    1.45926735    1.82591195   -2.78952965      0.01935219   -0.04971117    0.04257538      0.00000000    0.00000000    0.00000000
    8    4.79845030    3.68369801   -3.68778792      0.12547178    0.05550776   -0.08403909      0.00000000    0.00000000    0.00000000
    1    4.69084730    2.70426501   -3.85836992     -0.02032860   -0.08535312    0.04344128      0.00000000    0.00000000    0.00000000
    1    4.20587430    4.48859301   -3.71884992     -0.06043667    0.01655640    0.00483176      0.00000000    0.00000000    0.00000000
    8   -7.21662129   -6.72849815   -4.01227135     -5.32145491   -3.79752828   -0.83028495      0.00000000    0.00000000    0.00000000
    1   -8.08882929   -6.49479515   -3.58261835     -0.42511260    0.36930714    0.27394509      0.00000000    0.00000000    0.00000000
    1   -6.29293729   -6.34545615   -4.01960735     -1.04609547    1.89232930   -3.17970068      0.00000000    0.00000000    0.00000000
    8   -7.15754667   -9.10378174   -9.11643221    -52.98846938   11.87979507   18.32926689      0.00000000    0.00000000    0.00000000
    1   -6.80289067   -8.26015874    9.48047279      0.18345238    0.07059471   -0.04071972      0.00000000    0.00000000    0.00000000
    1   -7.99565967   -9.37903474   -8.64550921     -0.16367141    0.22688601    0.29196823      0.00000000    0.00000000    0.00000000
    8   -7.84448367    2.68828737    9.12200173      0.06606005    0.47462754   -0.20215616      0.00000000    0.00000000    0.00000000
    1   -8.18321667    1.75330337    9.22704073     -0.03873704   -0.07950923    0.12118780      0.00000000    0.00000000    0.00000000
    1   -7.74472467    3.33665137    8.36725773     -0.04115474   -0.09469209   -0.04006238      0.00000000    0.00000000    0.00000000
    8   -7.45749890   -6.49883007    3.73488471     29.93164528    8.88890004  -61.22667060      0.00000000    0.00000000    0.00000000
    1   -7.41964190   -6.97440107    4.61372771     -0.87800958    0.79552841    1.54795393      0.00000000    0.00000000    0.00000000
    1   -8.11587890   -5.91373707    3.26141971      0.34728836    0.14249659    0.21836026      0.00000000    0.00000000    0.00000000
    8   -3.54997045   -4.21080496   -4.73583944      1.74340287    1.44895628   -0.95364304      0.00000000    0.00000000    0.00000000
    1   -3.49846745   -3.22152596   -4.59930544      0.08963968    0.12496563    0.41337785      0.00000000    0.00000000    0.00000000
    1   -3.49724945   -4.83280496   -5.51705944     -0.08445765    0.69684532    0.74765495      0.00000000    0.00000000    0.00000000
    8   -3.45594639   -6.60790410    8.73330091     24.24746180    4.38305590  -23.24596732      0.00000000    0.00000000    0.00000000
    1   -4.45503839   -6.64223810    8.70874091     -1.02752588   -0.88911722    0.76305428      0.00000000    0.00000000    0.00000000
    1   -2.70802639   -7.12170810    8.31307791     -0.33538633    0.06480026   -0.01597243      0.00000000    0.00000000    0.00000000
    8    5.63189998    6.18626596    4.04495761      0.06036697   -0.30227122    0.02307142      0.00000000    0.00000000    0.00000000
    1    5.20218098    6.85774696    3.44128461      0.04706752    0.22327246    0.00081572      0.00000000    0.00000000    0.00000000
    1    5.63571198    6.00094696    5.02761261     -0.02244613    0.10894840   -0.00764244      0.00000000    0.00000000    0.00000000
    8   -5.82903816    1.01795667   -8.68512944     -2.19711741   -2.06538761   -0.04535236      0.00000000    0.00000000    0.00000000
    1   -5.79446716    1.98971067   -8.91850744      0.02749745    0.25253127   -0.08548105      0.00000000    0.00000000    0.00000000
    1   -6.54594516    0.35524467   -8.46873744     -0.18806494    0.01003967    0.25761693      0.00000000    0.00000000    0.00000000
    8   -5.39285717    9.57451116    9.16339359     49.04306290   52.23396306 -105.20508419      0.00000000    0.00000000    0.00000000
    1   -4.91936217   -8.89189584   -9.13585941      1.12681333   -2.16944565   -0.57273254      0.00000000    0.00000000    0.00000000
    1   -6.01691217   -9.22718184    8.40761859     -0.01796746   -0.48179521    0.11424670      0.00000000    0.00000000    0.00000000
    8   -6.15787354   -2.12530398    4.51926967     13.64029404   33.54749951   -4.38110402      0.00000000    0.00000000    0.00000000
    1   -6.33760854   -1.15113398    4.38269067      0.23886316    0.13325762    0.02275146      0.00000000    0.00000000    0.00000000
    1   -5.34665154   -2.69638898    4.64476467      0.28183186    0.45962941   -0.71225527      0.00000000    0.00000000    0.00000000
    8   -2.06512732   -1.52588419    7.72659731     -0.04449038   -0.27251584    0.22664840      0.00000000    0.00000000    0.00000000
    1   -1.94686032   -0.69185119    8.26545531      0.01816836    0.25753362   -0.08708687      0.00000000    0.00000000    0.00000000
    1   -1.46246232   -2.16538819    7.24931731     -0.03022387    0.08547594   -0.09717748      0.00000000    0.00000000    0.00000000
    8    6.40779441    6.87542883   -8.85887572     -0.89584533    0.34750851    0.24227380      0.00000000    0.00000000    0.00000000
    1    7.26119341    6.46989783   -8.53142872      0.25886516   -0.12160427   -0.29860860      0.00000000    0.00000000    0.00000000
    1    5.44198141    6.82129883   -8.60541672      0.07965164   -0.08412372   -0.00306016      0.00000000    0.00000000    0.00000000
    8    8.32163710   -8.60131524   -4.23502880     -3.55223437    0.39478132   -0.76793218      0.00000000    0.00000000    0.00000000
    1    8.96284610   -8.44137324   -3.48453880      0.45828001    0.69292920    0.11801274      0.00000000    0.00000000    0.00000000
    1    7.81802710   -8.03170424   -4.88455680     -0.00990562    0.08494730    0.00475043      0.00000000    0.00000000    0.00000000
    8    8.34650369   -4.50574650   -7.91918197    -84.61649502  -10.59040249  -48.45145684      0.00000000    0.00000000    0.00000000
    1    7.89180669   -4.31094850   -8.78824597     -0.02576373    0.01015981   -0.00165025      0.00000000    0.00000000    0.00000000
    1    8.78125669   -5.30135950   -7.49733297     -0.72505376    0.07721781    0.21582512      0.00000000    0.00000000    0.00000000
    8   -3.41883677   -6.78209292    5.15154567     26.71036426   65.17429730  -38.46111518      0.00000000    0.00000000    0.00000000
    1   -3.73708777   -7.72984292    5.13025367     -1.02975670   -1.65971625    1.20988754      0.00000000    0.00000000    0.00000000
    1   -3.84836777   -5.87908892    5.15890367     -0.17005514   -0.00723965   -0.22787795      0.00000000    0.00000000    0.00000000
    8   -5.44746773    8.40324119   -8.40361970    -38.14101894  -54.59445517  -57.62850044      0.00000000    0.00000000    0.00000000
    1   -6.07312673    7.68125619   -8.10822670     -3.31457941    3.11183252   -0.76241725      0.00000000    0.00000000    0.00000000
    1   -5.29843673   -9.63524481   -8.17286870      0.51385058   -1.32134280    1.93923887      0.00000000    0.00000000    0.00000000
    8   -3.23863385   -5.98989517    0.88548110     35.42818371   68.24188123   20.05970782      0.00000000    0.00000000    0.00000000
    1   -4.05607685   -6.56404917    0.83966210      0.23686324   -2.20016457   -0.62303196      0.00000000    0.00000000    0.00000000
    1   -3.04694385   -5.02387917    1.05879010     -0.03910872   -0.28682872    0.06262249      0.00000000    0.00000000    0.00000000
    8   -8.46323586   -2.77716413    3.18176307    -62.03668670   35.59731207    8.61572579      0.00000000    0.00000000    0.00000000
    1   -7.57832586   -2.32871313    3.30743107      1.12901826   -0.61484977    0.02563772      0.00000000    0.00000000    0.00000000
    1   -9.42228186   -2.52444613    3.30955407      0.13778167    0.09363145   -0.08191220      0.00000000    0.00000000    0.00000000
    8   -0.21140358   -6.21267999    6.52909204      0.04923396    0.10648905    0.27766284      0.00000000    0.00000000    0.00000000
    1   -0.34659058   -7.11571999    6.93678104      0.02857527   -0.00473801   -0.19051534      0.00000000    0.00000000    0.00000000
    1   -0.02277558   -5.29117199    6.86851604     -0.02464591   -0.10244320   -0.14092504      0.00000000    0.00000000    0.00000000
    8   -8.50423001   -9.14032077   -7.03332922     10.03774856   -4.90719274   14.70318365      0.00000000    0.00000000    0.00000000
    1   -9.43258101    9.48813323   -7.02406222     -0.06020823   -1.26428911    2.39569297      0.00000000    0.00000000    0.00000000
    1   -7.58019901    9.48913123   -6.93936822      0.53417586    0.10759657   -0.23067091      0.00000000    0.00000000    0.00000000
    8   -1.30986330    4.94425835   -5.98050628    -28.82860420   13.46040721  -61.64179738      0.00000000    0.00000000    0.00000000
    1   -0.84875530    4.20226235   -6.46711428     -0.11513349    0.02126426    0.25552820      0.00000000    0.00000000    0.00000000
    1   -2.19048130    5.41274735   -6.05119528      0.07566633   -0.13066972    0.17781140      0.00000000    0.00000000    0.00000000
    8    0.04441340   -2.55956987    2.91956342      0.00229822    0.08368896   -0.03381037      0.00000000    0.00000000    0.00000000
    1   -0.11078360   -2.48581787    1.93445342      0.00997427   -0.03376093    0.02977767      0.00000000    0.00000000    0.00000000
    1    0.80588940   -2.82768687    3.50967642     -0.01210692   -0.05812140   -0.00464285      0.00000000    0.00000000    0.00000000
    8   -6.88621222   -3.94031051    4.97259444    -12.86376721  -34.19411081   32.56958165      0.00000000    0.00000000    0.00000000
    1   -5.99176322   -3.59204851    5.25302244     -0.69195852    0.21946261    0.08996800      0.00000000    0.00000000    0.00000000
    1   -7.80558522   -3.56088551    4.86887744     -0.31132683    0.55869429    0.06573682      0.00000000    0.00000000    0.00000000
    8   -3.46492788    1.53936974    8.51069535      1.54821522   -2.16619199   -3.35491618      0.00000000    0.00000000    0.00000000
    1   -3.45652888    2.47667074    8.85906735     -0.28818060    0.01700451    0.68765679      0.00000000    0.00000000    0.00000000
    1   -3.92212688    0.68468674    8.75657135     -0.08936879    0.25966240    0.08649300      0.00000000    0.00000000    0.00000000
    8    6.71421941   -4.85382899   -5.83796140      0.88044714    1.63380482   -7.77761418      0.00000000    0.00000000    0.00000000
    1    7.66157841   -4.76742399   -6.14620140     -0.10597309    0.40978854   -0.25660969      0.00000000    0.00000000    0.00000000
    1    5.85914841   -5.19523099   -6.22817240      0.20587774    0.20870189   -0.08372846      0.00000000    0.00000000    0.00000000
    8   -9.44399792    2.97295350   -3.45657207    -99.80744075   27.29360450    8.06652560      0.00000000    0.00000000    0.00000000
    1    8.80287308    3.55675150   -3.75979407      0.05782415   -0.22814368   -0.08802092      0.00000000    0.00000000    0.00000000
    1   -8.44576892    3.03184350   -3.45042707      0.60091562   -4.44114598   -4.27856506      0.00000000    0.00000000    0.00000000
    8   -5.09943791    2.88254739    5.48460352      1.82445959    0.89480678    3.56577670      0.00000000    0.00000000    0.00000000
    1   -4.45722091    3.17238139    4.77501152      0.23619436   -0.29782849    0.15750555      0.00000000    0.00000000    0.00000000
    1   -5.83711591    3.31159739    6.00586352      0.09182381   -0.09722412    0.01181020      0.00000000    0.00000000    0.00000000
    8   -3.85176241    9.32309509   -8.22959495     11.90408014  102.24348123   68.66115139      0.00000000    0.00000000    0.00000000
    1   -3.59781841   -8.72516291   -8.05735695      0.56952106    0.08046139    0.20987948      0.00000000    0.00000000    0.00000000
    1   -3.66279241    8.64555309   -8.94036595      1.47718460   -0.64871380   -0.32137355      0.00000000    0.00000000    0.00000000
    8   -8.63414632    9.46962567    7.31017836     -0.37825771    0.18081076    0.06093867      0.00000000    0.00000000    0.00000000
    1   -8.18083032   -8.73174633    7.70598736      0.16505571   -0.14227037   -0.16079085      0.00000000    0.00000000    0.00000000
    1    9.46073768    9.26832067    6.93573536     -0.02749225   -0.09997831   -0.11241279      0.00000000    0.00000000    0.00000000
    8    8.03002564   -1.66671837   -6.64013604      0.23416415    0.08715785   -0.13352404      0.00000000    0.00000000    0.00000000