 BEGIN_INFO
   #
   # This is a XCRYSDEN-Structure-File
   # aimed for Visualization of Fermi Surface
   #
   # Case: Tight-binding calculation
   #
   # Launch as: xcrysden --xsf HICOLM.XSF
   #
 END_INFO
 # estrutura final
CRYSTAL
PRIMVEC
      14.43164368       0.00000000       0.00000000
       0.00000000      14.43164368       0.00000000
       0.00000000       0.00000000      14.43164368
PRIMCOORD
  300    1
    8    2.21024857    2.34604985    0.85576045    182.76927837  -39.19535191  621.96581950      0.00000000    0.00000000    0.00000000
    1    3.03646929    1.79057668    0.82303931  -1353.70770655  107.09678104  349.38764561      0.00000000    0.00000000    0.00000000
    1    2.08814628    2.52566876    1.87545199     18.30198949   45.54866840  -31.50589631      0.00000000    0.00000000    0.00000000
    8    2.49314365   -4.69648415   -1.35981120    220.47932591  202.20906272-2196.84344304      0.00000000    0.00000000    0.00000000
    1    2.58778979   -5.67525765   -1.74629677   -936.44454874 1129.70258811  397.20125111      0.00000000    0.00000000    0.00000000
    1    3.40794536   -4.27167497   -1.66945226   -625.41714524 -603.35492484 -200.81916474      0.00000000    0.00000000    0.00000000
    8    5.62669009   -6.55698895   -5.53822586  -2086.22790833 1047.95897563-1248.00893377      0.00000000    0.00000000    0.00000000
    1    4.63162689   -6.26542777   -5.32731930     61.11296748   39.51084754  -14.23909172      0.00000000    0.00000000    0.00000000
    1    5.72471827   -6.09935574   -6.47641050    454.53007919-1147.70185360 2455.92077814      0.00000000    0.00000000    0.00000000
    8    4.92742268   -0.40960786    5.34155983   1758.58481703-1224.39244828-1054.77294536      0.00000000    0.00000000    0.00000000
    1    5.57453426   -1.11935918    5.60971252    -72.13719855  137.84499465   67.49339046      0.00000000    0.00000000    0.00000000
    1    4.34651721   -0.64611498    4.55614162     73.06243899  -67.51445517  105.27555324      0.00000000    0.00000000    0.00000000
    8    0.59379430    2.79758987   -4.35465264    396.21040441  285.72321139-2190.33579509      0.00000000    0.00000000    0.00000000
    1    0.71539545    3.14720201   -5.31792548   -430.17477516   -9.78987949 2692.27103003      0.00000000    0.00000000    0.00000000
    1    0.65440112    1.80849970   -4.51917647      2.90234622   37.03087824   18.80176281      0.00000000    0.00000000    0.00000000
    8    1.99009869    3.43828859   -1.79791319   -731.02961794-2687.07156627 -205.76883381      0.00000000    0.00000000    0.00000000
    1    1.92724182    2.65076667   -1.12005368   -101.35581200  101.86720165 -695.89477247      0.00000000    0.00000000    0.00000000
    1    1.48894395    3.08205397   -2.65274376    548.18724824  171.21119898 1035.26519908      0.00000000    0.00000000    0.00000000
    8    4.87797653    1.69197247    0.29146655    937.69380226 1932.75412657 -689.39303347      0.00000000    0.00000000    0.00000000
    1    4.61227382    1.49812611   -0.72255461    321.31632863  254.83061346  975.14670028      0.00000000    0.00000000    0.00000000
    1    5.24710384    2.67155194    0.22567727   -478.22654402-2563.79931050  118.37438773      0.00000000    0.00000000    0.00000000
    8   -0.17185158    4.90679813   -0.74803888   -645.58340167-2760.91189003  700.41375677      0.00000000    0.00000000    0.00000000
    1    0.61089280    4.40134141   -1.16837984  -2586.24968712 1806.72054484 1186.50517398      0.00000000    0.00000000    0.00000000
    1   -0.48966781    4.14570732   -0.16604532   1135.65257074 2192.23224618-2079.26264787      0.00000000    0.00000000    0.00000000
    8    0.43867035   -4.66329443   -2.96556007   -343.99349947 -346.03279997 1742.11298146      0.00000000    0.00000000    0.00000000
    1    0.37229017   -5.27596052   -2.13412705    485.34882946 1842.89932730-1074.91572164      0.00000000    0.00000000    0.00000000
    1    0.38191666   -3.64274148   -2.65816059    -55.63401663-1322.20726225 -412.38459499      0.00000000    0.00000000    0.00000000
    8   -3.85896864    2.88306654   -0.12987818  -1086.28962305   53.79097209 -272.79419155      0.00000000    0.00000000    0.00000000
    1   -4.40092795    2.03773093   -0.03756971    981.78502537  493.64705815  133.44013760      0.00000000    0.00000000    0.00000000
    1   -4.68496078    3.43351407   -0.41376337   1745.99377765 -692.86381344  832.63190597      0.00000000    0.00000000    0.00000000
    8   -1.11987491    2.92139738    0.99630952  -1055.53820841-2451.36916962 1856.16421317      0.00000000    0.00000000    0.00000000
    1   -2.15286284    2.73066167    0.75875398   1151.80808826 -112.78121115  596.56587872      0.00000000    0.00000000    0.00000000
    1   -0.91208181    1.93036561    0.87937056   -335.47923916 1617.33317173  847.85967719      0.00000000    0.00000000    0.00000000
    8    3.11600063    6.77388840    0.33668707   1253.48346854-1185.77972321-1710.09519982      0.00000000    0.00000000    0.00000000
    1    3.02970022    6.59212033   -0.67128891   -667.40558099 -677.53149125 1401.78167436      0.00000000    0.00000000    0.00000000
    1    3.90878553    6.15819180    0.53602579    -50.47227517  158.72405234 -157.99133942      0.00000000    0.00000000    0.00000000
    8   -1.87673749   -3.48850368    4.75176211    921.93719017 -503.80870812-1879.71918840      0.00000000    0.00000000    0.00000000
    1   -2.21159834   -4.12498098    4.02827982    669.59608590 1249.64621111 1371.04476445      0.00000000    0.00000000    0.00000000
    1   -1.27107737   -2.93662377    4.17605917   -989.07367005-1229.41130597 1222.68973870      0.00000000    0.00000000    0.00000000
    8    3.16872623    6.98971934    6.72188715   1391.70231787 -256.91229990 1849.17353765      0.00000000    0.00000000    0.00000000
    1    2.93656011    6.43556929   -6.88365074   -182.95552924  884.03816662 -603.60722937      0.00000000    0.00000000    0.00000000
    1    4.17544147    6.99415432    6.85644585    -26.81713996  -26.49130338   -2.02582691      0.00000000    0.00000000    0.00000000
    8   -7.07684748    2.85818776    1.83284870   -467.98645370  252.83788742-1979.48503272      0.00000000    0.00000000    0.00000000
    1   -6.55091497    2.31075110    1.15486011   -486.18834069 1327.77469755 1612.41523237      0.00000000    0.00000000    0.00000000
    1    6.74649308    3.46431436    1.26142436    883.79744401 -747.85814595  854.59816531      0.00000000    0.00000000    0.00000000
    8   -3.10847975    4.52015949   -2.07765882    774.66240501  214.65695299 1046.78283888      0.00000000    0.00000000    0.00000000
    1   -2.57962822    3.64088104   -2.13419529   -303.85840375  564.07069331   74.29028979      0.00000000    0.00000000    0.00000000
    1   -2.79841877    4.96871544   -1.19308658     16.21544533   13.35006866  -27.96599517      0.00000000    0.00000000    0.00000000
    8    0.01054506   -1.88683387    6.11575398   -334.48115321-1459.99759672-1632.83613268      0.00000000    0.00000000    0.00000000
    1    0.50155328   -2.52225658    5.54073635   -212.52778772    7.71855622    1.61736470      0.00000000    0.00000000    0.00000000
    1   -0.62388657   -1.56595111    5.39416078     68.82320443  -16.23054421   77.47790365      0.00000000    0.00000000    0.00000000
    8   -6.36343895    6.60267889    3.14938441   1496.48712536  -34.09680940 -797.19069829      0.00000000    0.00000000    0.00000000
    1   -6.38603157   -7.12009739    2.40544951   -288.69548224 -829.74697126 1178.61522422      0.00000000    0.00000000    0.00000000
    1   -5.33985798    6.61541939    3.27868622  -1592.45592222 -168.72546195 -885.56502543      0.00000000    0.00000000    0.00000000
    8   -2.69728774   -1.56562002    0.69125885  -1225.97525828-1333.08711531  521.44872003      0.00000000    0.00000000    0.00000000
    1   -3.50779490   -2.06890010    1.12624535   7495.05860369-1319.49401977 1104.67961162      0.00000000    0.00000000    0.00000000
    1   -2.49123356   -2.24035016   -0.04806517    -51.04738276   86.00949660  628.38267572      0.00000000    0.00000000    0.00000000
    8   -2.19240134    1.07697608   -5.32325268   -939.84824475  388.23414662  502.87269187      0.00000000    0.00000000    0.00000000
    1   -2.93251570    1.03726614   -5.97621102    817.11008528  591.74211551  458.10773221      0.00000000    0.00000000    0.00000000
    1   -2.28672745    0.19254953   -4.78463151    247.61657572  858.87940975   -0.01337333      0.00000000    0.00000000    0.00000000
    8   -1.44527579    0.63438337    5.43521971    432.95368947  493.71259477  194.24264251      0.00000000    0.00000000    0.00000000
    1   -0.89959818    0.89213120    4.59391943   -149.17444074    7.42814845  179.87346863      0.00000000    0.00000000    0.00000000
    1   -1.71341192    1.56497745    5.72966897      2.65165263    3.18336287   -2.20951392      0.00000000    0.00000000    0.00000000
    8   -4.05259990    5.66740217    0.92572942  -1641.39515509-1169.83498128 -456.12574278      0.00000000    0.00000000    0.00000000
    1   -4.76574379    5.75795118    0.20307194    140.66550262 -328.95215526  521.29226376      0.00000000    0.00000000    0.00000000
    1   -4.25660417    4.81101299    1.42467398    -21.38758292   40.24461112    0.37004430      0.00000000    0.00000000    0.00000000
    8    3.25924568    3.13870967    4.24774085    279.13185362-1067.48030931  594.52208454      0.00000000    0.00000000    0.00000000
    1    2.98461370    2.21599777    4.65856998     79.88629252  293.96626059 -397.57119469      0.00000000    0.00000000    0.00000000
    1    4.24859989    3.02702656    4.37225687   -266.75710951   58.55847070  -23.13489365      0.00000000    0.00000000    0.00000000
    8   -2.20993912    4.39498578    3.08218975   -577.09790824 -787.60921212-2311.94930170      0.00000000    0.00000000    0.00000000
    1   -1.58418860    4.57416483    2.24831293    -72.74486593  274.48912749  207.73852949      0.00000000    0.00000000    0.00000000
    1   -3.00687998    3.84487602    2.67278791    941.39488398  460.43741131 -358.24376691      0.00000000    0.00000000    0.00000000
    8   -5.39315896   -4.19018842    3.69120474    910.85130969   61.97823375 -774.58047220      0.00000000    0.00000000    0.00000000
    1   -4.42759808   -3.86717413    3.57977400    -82.78310839   69.27508523   31.62726568      0.00000000    0.00000000    0.00000000
    1   -5.59242309   -4.30723582    2.70841097      6.30536046   18.36916124   10.07098630      0.00000000    0.00000000    0.00000000
    8   -4.61517161    4.74808997   -4.58010223  -2009.82760242 -511.66714153 1499.88491030      0.00000000    0.00000000    0.00000000
    1   -4.36099376    4.61075573   -3.58198896   -693.83777829   53.21950994 -816.14049243      0.00000000    0.00000000    0.00000000
    1   -5.63100464    4.97265334   -4.46485435    210.79368285  -94.21725738  260.15510428      0.00000000    0.00000000    0.00000000
    8    1.67043309   -5.33084835    5.63862775   -467.54283246-1151.10872288  -66.19196075      0.00000000    0.00000000    0.00000000
    1    2.33228063   -6.12994541    5.61280294   -643.28818378 1030.21235635 -867.30594083      0.00000000    0.00000000    0.00000000
    1    0.76190280   -5.74003989    5.62819273   1089.07458029 2086.35988656 -932.11712301      0.00000000    0.00000000    0.00000000
    8   -2.83989244   -5.31120258    2.72596563   -588.87877304-1284.58199583-1403.56705216      0.00000000    0.00000000    0.00000000
    1   -3.30205215   -6.23603416    2.87990701    194.93772219  767.78673093 -682.90771613      0.00000000    0.00000000    0.00000000
    1   -2.15253098   -5.55467057    2.00920663   -362.07413310 2161.19130340 1557.90902270      0.00000000    0.00000000    0.00000000
    8   -1.90820913   -7.02273353    0.94931870   -782.66316947-2776.67920591  703.52855830      0.00000000    0.00000000    0.00000000
    1   -1.04314678   -7.22121038    1.51943126  -1264.23344147  207.52524971 -401.25322398      0.00000000    0.00000000    0.00000000
    1   -2.58609312    6.73206606    1.36021706   1631.50598193 1172.20435674  476.48420502      0.00000000    0.00000000    0.00000000
    8   -6.00395406   -6.04075557    0.87411812    294.29141330  821.31169783-1181.98052138      0.00000000    0.00000000    0.00000000
    1   -6.38795917   -5.29761790    0.27795491    517.81863400 -102.83749569  561.27147365      0.00000000    0.00000000    0.00000000
    1   -5.84058243   -6.74783264    0.17873843   -379.96520646  497.21610560  959.37398007      0.00000000    0.00000000    0.00000000
    8    6.52395330   -2.96427003    4.76150055    860.69179009  717.32711958  578.18142435      0.00000000    0.00000000    0.00000000
    1    6.61152834   -2.21657834    4.07138673   -997.97922010-1223.12902831 1705.76383433      0.00000000    0.00000000    0.00000000
    1   -6.95429699   -3.32425836    4.53775331   -748.09839596  418.22471105  411.19033521      0.00000000    0.00000000    0.00000000
    8   -6.03531200   -6.33069368    5.78974180    -76.12652382-1188.55145385-1219.82601462      0.00000000    0.00000000    0.00000000
    1   -5.92641931   -5.73261480    4.91235152   -161.72609068 -475.47755604  375.57250713      0.00000000    0.00000000    0.00000000
    1   -6.14880077    7.12587341    5.43119299      5.56550240   18.72693269   88.29681720      0.00000000    0.00000000    0.00000000
    8   -6.95162119    1.72304701   -3.73055998     48.10341518  882.50887710  878.02511349      0.00000000    0.00000000    0.00000000
    1    7.11023890    2.53622158   -3.28278251    774.09954969 -995.61365978  814.11494272      0.00000000    0.00000000    0.00000000
    1   -6.04172716    1.73714606   -3.26520197  -1332.84537424 -139.61228804 -406.09513222      0.00000000    0.00000000    0.00000000
    8    1.32217753   -2.45839274    0.48299640    651.74363769-1060.96331913 2264.22402768      0.00000000    0.00000000    0.00000000
    1    1.57136590   -3.40815911    0.05642040   -163.35784048  228.82271391  227.93013659      0.00000000    0.00000000    0.00000000
    1    1.79834607   -2.51432214    1.38556230  -1726.08198270 -150.08259383-1955.25105689      0.00000000    0.00000000    0.00000000
    8    6.69433103   -5.02916469   -1.18355790  -1536.39061207 -849.64982118 -327.62793160      0.00000000    0.00000000    0.00000000
    1    6.61821266   -5.84340211   -1.82305927    -14.77481548    6.67005351    8.43087549      0.00000000    0.00000000    0.00000000
    1    5.71613917   -4.72212576   -1.29189521    331.10475546 -659.37295454  -22.28319232      0.00000000    0.00000000    0.00000000
    8    6.12815115    3.80287932   -4.32090355   1175.71677131  293.02527939-2349.69366954      0.00000000    0.00000000    0.00000000
    1    5.62764943    3.11703557   -4.90331066    770.46148603  692.89632232  382.26265399      0.00000000    0.00000000    0.00000000
    1    6.47678004    4.26219202   -5.13819381  -1013.34697562-1246.68867626  909.18852749      0.00000000    0.00000000    0.00000000
    8   -2.83331594   -5.70834377   -5.03015419   -268.17305655  523.09682911 2476.91005991      0.00000000    0.00000000    0.00000000
    1   -3.79838187   -5.85470224   -4.83541961      0.69012078   -4.14905674    7.14959468      0.00000000    0.00000000    0.00000000
    1   -2.32700782   -6.44360325   -4.47572262   -217.98217501  702.21535534  -54.58551552      0.00000000    0.00000000    0.00000000
    8   -3.70136157    6.78951799    4.18626914   1381.18820962 -593.83417753 1574.25318805      0.00000000    0.00000000    0.00000000
    1   -3.15225564    5.93549137    3.96466191   -353.16238459  579.97207012  339.97481785      0.00000000    0.00000000    0.00000000
    1   -3.18108986    7.11297454    4.99220997   -498.40483550 -587.35359825-1784.40063931      0.00000000    0.00000000    0.00000000
    8   -1.99660789    6.00887200   -4.26288398   -606.28376744-1532.64236833  299.04957119      0.00000000    0.00000000    0.00000000
    1   -2.75600694    5.26816021   -4.53967910   1257.11202006  351.27846849   19.52630171      0.00000000    0.00000000    0.00000000
    1   -1.80678505    5.64176549   -3.34606913    204.69144513  169.40796630 -197.23482109      0.00000000    0.00000000    0.00000000
    8   -0.89696459    4.44920309    5.62426579  -1387.88598327 1240.03128909-1288.98689029      0.00000000    0.00000000    0.00000000
    1   -1.75918621    4.60771809    6.17884895   1361.08182933 -285.92571167 -937.06903618      0.00000000    0.00000000    0.00000000
    1   -1.42135583    4.57802431    4.74935191    946.56098348  220.29732305 2005.30179449      0.00000000    0.00000000    0.00000000
    8   -7.03492637   -0.48113889   -5.70063885  -1615.49825355  -90.33414148  531.20295709      0.00000000    0.00000000    0.00000000
    1   -6.99337676    0.30560733   -5.04518035    -33.48581223 -924.16122385 -858.67426786      0.00000000    0.00000000    0.00000000
    1    6.36279224   -0.52421486   -5.55285677   1608.72785176  215.13801391 -250.33310461      0.00000000    0.00000000    0.00000000
    8   -6.10175837    0.73974170    4.58512420    917.20509391  625.31133465  897.38891600      0.00000000    0.00000000    0.00000000
    1   -5.66477957    1.52184380    5.07719372   -611.92466293 -580.24585578 -612.47560994      0.00000000    0.00000000    0.00000000
    1   -5.46773979   -0.03336955    4.80603819   -484.75692756  325.03031674  -62.98899363      0.00000000    0.00000000    0.00000000
    8    4.75497371   -4.99098298    3.61553021  -1268.25665213 2265.28332681-2735.84690095      0.00000000    0.00000000    0.00000000
    1    4.03304964   -4.71991393    2.90091451   1171.72181691  334.82184765 1339.34132123      0.00000000    0.00000000    0.00000000
    1    5.37434157   -4.14053360    3.75317940   -782.24090181 -790.06081769 -696.32435950      0.00000000    0.00000000    0.00000000
    8   -5.19713174    6.85229361   -1.46235671    322.91741608    3.19295399-1453.49664400      0.00000000    0.00000000    0.00000000
    1   -4.37258151   -7.04165878   -1.73209002  -1205.49117825 -561.37059526   88.70545893      0.00000000    0.00000000    0.00000000
    1   -5.77123648    7.12700995   -2.28211725    827.19438709 -476.42069030 1764.26964432      0.00000000    0.00000000    0.00000000
    8    3.01709045   -2.40976814    2.74832945   1776.23344944 -875.56452587 2064.12387525      0.00000000    0.00000000    0.00000000
    1    3.31865551   -3.42259071    2.54512753    101.28115453  565.39564270  283.99466428      0.00000000    0.00000000    0.00000000
    1    2.89492822   -2.50600503    3.79604781    277.72387915   72.57833182-2590.13686617      0.00000000    0.00000000    0.00000000
    8    2.83002820   -5.10917839    1.50523197  -1284.01347711 -879.30815208-1623.24228773      0.00000000    0.00000000    0.00000000
    1    2.52982147   -5.05144830    0.47071008     41.28678828 -393.51314985 2011.92302026      0.00000000    0.00000000    0.00000000
    1    2.87309855   -6.13313391    1.48404983   -155.60625782 1090.33431281  801.44751439      0.00000000    0.00000000    0.00000000
    8   -2.84674383   -1.71189708   -4.77374997   -324.87445055 -564.91544201-1407.17362357      0.00000000    0.00000000    0.00000000
    1   -3.69127117   -2.07254669   -5.21437323    876.48327350  319.76009204 -402.66498871      0.00000000    0.00000000    0.00000000
    1   -2.43282815   -2.22157080   -5.56665558    310.13760540 1423.60506903 1496.62610996      0.00000000    0.00000000    0.00000000
    8   -2.70509930   -3.49086469   -6.90162983    -82.53349473-1408.71410619-1505.11009845      0.00000000    0.00000000    0.00000000
    1   -2.45350361   -3.44036046    6.53568644   -578.85444380   42.04667731 1812.49261483      0.00000000    0.00000000    0.00000000
    1   -2.42200359   -4.44763932   -6.67055890     89.51297614  265.19523847 -299.19286866      0.00000000    0.00000000    0.00000000
    8    1.67823946    5.73224994    4.58524876    743.46627681 -930.27459172 1444.90186974      0.00000000    0.00000000    0.00000000
    1    1.89229462    4.72000930    4.66891814   -221.04628214  252.16068798   74.55281786      0.00000000    0.00000000    0.00000000
    1    2.23053544    6.03366510    5.35769077   -710.13233851 -749.66404962-1060.47837995      0.00000000    0.00000000    0.00000000
    8   -4.51536137    2.55473030    6.28651955    642.65986821  430.70356426 1496.26164687      0.00000000    0.00000000    0.00000000
    1   -4.51050677    1.77529097    6.91386967    -82.92909117 1146.28778561 -464.25849774      0.00000000    0.00000000    0.00000000
    1   -4.11902451    3.26611444    6.87654866   -743.42409402-1510.73004045 -317.45333633      0.00000000    0.00000000    0.00000000
    8    4.35550762    4.57446264   -2.32049306   -865.42084472-2265.27260359-1753.19388559      0.00000000    0.00000000    0.00000000
    1    3.65225874    3.87805127   -2.29007849   3310.19210926  878.77709510 -985.28363888      0.00000000    0.00000000    0.00000000
    1    4.74599570    4.31742342   -3.23457197  -1966.72711484  726.53699996 1539.95632144      0.00000000    0.00000000    0.00000000
    8   -2.32171311   -2.54165642   -2.05519190   -231.90290715 -259.29304830 -660.43965350      0.00000000    0.00000000    0.00000000
    1   -3.18008668   -3.11664091   -1.93561066     53.42839344   -4.79451004  -20.32447782      0.00000000    0.00000000    0.00000000
    1   -2.62440575   -2.07159591   -2.90830914    166.10814122 -277.06952662 1427.93795313      0.00000000    0.00000000    0.00000000
    8    5.57035617    4.47182833    0.13236783  -1868.51676560 3406.69821454 -375.82895747      0.00000000    0.00000000    0.00000000
    1    5.21303284    4.96481960   -0.70680256    912.47811956  417.97498765 1724.65782588      0.00000000    0.00000000    0.00000000
    1    5.07718586    4.99603922    0.92247120    940.24138324   33.79725179-1109.85068529      0.00000000    0.00000000    0.00000000
    8    4.02166319    1.04246951   -2.53436510   -310.60864435 -245.25553060 -970.72174909      0.00000000    0.00000000    0.00000000
    1    4.31739078    1.64124045   -3.22875179     -0.13791287  -13.72928275   63.04148312      0.00000000    0.00000000    0.00000000
    1    3.49487628    0.45117215   -3.19934592    978.91369809  685.98641904  440.75843186      0.00000000    0.00000000    0.00000000
    8    3.77239036   -7.08520519   -2.24014102   1630.09368203 -446.93656048-1802.56888550      0.00000000    0.00000000    0.00000000
    1    3.42579822   -7.06960052   -3.22211463    903.46246331  289.32573707 1718.77744490      0.00000000    0.00000000    0.00000000
    1    4.32033370    6.45273355   -2.29521415    -33.44356766 1859.46898291   10.85725216      0.00000000    0.00000000    0.00000000
    8   -4.21281389    1.93171651   -2.71618611   1321.61886204   79.51318504  321.10174908      0.00000000    0.00000000    0.00000000
    1   -3.22003576    1.85553530   -2.84277988  -1740.94670205 -153.11635386 -420.74684791      0.00000000    0.00000000    0.00000000
    1   -4.28835698    2.82334063   -2.25493141   -314.50487637 -426.84335592 -325.25060468      0.00000000    0.00000000    0.00000000
    8    5.52892375    4.65944723    6.28384982    103.78907192  -31.75575994-1052.38691751      0.00000000    0.00000000    0.00000000
    1    5.21372605    5.14270890    5.41317225    -97.81278173-1129.33510584  857.70820476      0.00000000    0.00000000    0.00000000
    1    5.88604982    3.85914149    5.78370883   -290.62905204  963.71068266  823.82896988      0.00000000    0.00000000    0.00000000
    8    4.50024326   -0.75397699   -5.27415400  -2422.75009174 -490.07380864   79.00394142      0.00000000    0.00000000    0.00000000
    1    3.59882409   -0.65372505   -4.80486747   1592.59445545  -92.14060617 -963.12136288      0.00000000    0.00000000    0.00000000
    1    4.15910561   -1.48629607   -5.96986228    -53.38407878 1454.47634115  610.27784523      0.00000000    0.00000000    0.00000000
    8   -0.35905360   -1.80356779    3.00273169    969.28369374 1196.87220973-1313.91850324      0.00000000    0.00000000    0.00000000
    1   -0.02733008   -0.87566932    2.63081771   -568.64554989-1898.88851725 -296.07532325      0.00000000    0.00000000    0.00000000
    1    0.33789635   -2.44358082    2.56394838    -65.64269061    2.98131879  105.88818600      0.00000000    0.00000000    0.00000000
    8    0.43617313   -1.81456510   -2.07244752  -1232.63543176  429.23263588 2585.13689178      0.00000000    0.00000000    0.00000000
    1   -0.47509150   -1.51381463   -1.73859048    283.37650460  134.75966489   24.16474199      0.00000000    0.00000000    0.00000000
    1    0.92479817   -1.75830705   -1.16131765   -562.10980287  996.20956175-2356.23543652      0.00000000    0.00000000    0.00000000
    8   -0.10905245   -6.83702061   -1.25679693   -292.77280003-1937.13829122 1060.48743877      0.00000000    0.00000000    0.00000000
    1   -0.77216327   -6.72421803   -0.49402832   1366.63796920  313.30906499-1586.11117712      0.00000000    0.00000000    0.00000000
    1    0.23078575    6.62255151   -1.18396735    647.65321083 2761.81025148 -698.40156727      0.00000000    0.00000000    0.00000000
    8    2.66746973    1.06697947    6.35251613    741.18013863-1645.37418214   44.20535320      0.00000000    0.00000000    0.00000000
    1    3.56363034    0.51743481    6.16389911  -1778.69005652 1203.39502164 1073.45586436      0.00000000    0.00000000    0.00000000
    1    2.12573832    0.29646190    6.76861230    101.47721760    7.15622810  -87.64821685      0.00000000    0.00000000    0.00000000
    8    6.32179565    2.43343224    4.55861336    520.51733882-1014.63956099 -797.82434175      0.00000000    0.00000000    0.00000000
    1    6.45806495    1.46733642    4.76146078   -652.78045592  286.23275658   51.30310296      0.00000000    0.00000000    0.00000000
    1    6.74530054    2.48526379    3.62964736   -420.72368985 -231.89907816 1167.87614529      0.00000000    0.00000000    0.00000000
    8    0.50145338    0.89443765    2.90991517    688.07210224 1874.27009021  151.97610598      0.00000000    0.00000000    0.00000000
    1    0.52593869    1.27293608    1.95441165    -54.05907484  -62.55757312  119.44519563      0.00000000    0.00000000    0.00000000
    1    1.50994639    0.91995914    3.12619402  -1244.86160121  308.54757404  206.09786614      0.00000000    0.00000000    0.00000000
    8   -6.13315705    1.15614980   -0.24075914   -534.60804139-1790.12052730-1740.15875837      0.00000000    0.00000000    0.00000000
    1   -7.03207808    0.75527684   -0.50060407     19.87733635   14.78931322  -22.65076049      0.00000000    0.00000000    0.00000000
    1   -5.95585961    1.78003813   -1.03981110    -57.41855613 -145.56552510   29.55824576      0.00000000    0.00000000    0.00000000
    8    0.39341352    0.03031750   -6.19822681  -1108.34169980  374.08396361-1597.89542213      0.00000000    0.00000000    0.00000000
    1    0.29461437   -0.67331944   -6.94614227    335.97556609 1469.88918905 1664.16312183      0.00000000    0.00000000    0.00000000
    1   -0.56585848    0.44343976   -6.19088298    948.94414915 -373.15921162 -514.28732134      0.00000000    0.00000000    0.00000000
    8   -6.28364401    4.05119913   -1.14811466  -1802.07940882  801.59992789 -824.33608964      0.00000000    0.00000000    0.00000000
    1   -7.10553845    4.31984997   -0.56967421   1515.19929532 -120.61667773 -615.97890497      0.00000000    0.00000000    0.00000000
    1   -6.28538537    4.92240948   -1.67329724    -98.55268633 -160.55850434  -19.97517840      0.00000000    0.00000000    0.00000000
    8    0.76403411    6.89588832    2.10125112   1239.92504006 -225.12499922  411.34192774      0.00000000    0.00000000    0.00000000
    1    1.64683816    6.90877984    1.56122985  -1098.56432774   81.28303846  911.23361656      0.00000000    0.00000000    0.00000000
    1    1.16139877    6.53133194    2.97716451   -551.26365165  855.35403123-1719.53858110      0.00000000    0.00000000    0.00000000
    8   -5.75147095   -4.12526816   -6.85657877   -268.47981113 -377.25265191 -806.19876846      0.00000000    0.00000000    0.00000000
    1   -5.95800906   -5.02197879    7.15209411     75.03550746 1180.71044272 1229.65446595      0.00000000    0.00000000    0.00000000
    1   -4.82752272   -3.92820462    7.12486095   -210.30027378  -47.70631182  -48.76648138      0.00000000    0.00000000    0.00000000
    8   -5.36682927   -2.64114779   -4.35987925   1531.13411613 -351.63247086 -537.81978295      0.00000000    0.00000000    0.00000000
    1   -5.20182382   -1.83487595   -4.95582307    -45.01720851  -46.78300808   22.59100360      0.00000000    0.00000000    0.00000000
    1   -5.19199747   -3.31143658   -5.14404403    259.36352066  384.45004278  816.81819247      0.00000000    0.00000000    0.00000000
    8   -7.02130837   -1.25186368    2.71403072   2610.30019647  455.41326286  306.23116910      0.00000000    0.00000000    0.00000000
    1   -6.39725098   -1.38727309    1.94112737  -6017.24890351 1901.22050643 5131.46992458      0.00000000    0.00000000    0.00000000
    1   -6.43089197   -0.61753949    3.26335725   -230.00446044 -962.01168560 -946.02173268      0.00000000    0.00000000    0.00000000
    8    4.21713464   -3.23881780   -6.70687962   1706.07530013-2610.26186655 1019.92756020      0.00000000    0.00000000    0.00000000
    1    3.44944180   -3.56263850   -6.10706221    515.04098569 -135.54161668 -355.30705794      0.00000000    0.00000000    0.00000000
    1    4.75078596   -4.08870577   -6.96357988  -1053.65889508 1944.53474837 1779.05467239      0.00000000    0.00000000    0.00000000
    8   -5.55857267   -3.04518243   -1.52166346  -1170.39743111-1729.04051498-3584.14253125      0.00000000    0.00000000    0.00000000