 BEGIN_INFO
   #
   # This is a XCRYSDEN-Structure-File
   # aimed for Visualization of Fermi Surface
   #
   # Case: Tight-binding calculation
   #
   # Launch as: xcrysden --xsf HICOLM.XSF
   #
 END_INFO
 # estrutura final
CRYSTAL
PRIMVEC
      14.43164368       0.00000000       0.00000000
       0.00000000      14.43164368       0.00000000
       0.00000000       0.00000000      14.43164368
PRIMCOORD
  300    1
    8    2.40016808    2.43590558    0.92342421    -25.19366426   -7.35419294   -2.46721721      0.00000000    0.00000000    0.00000000
    1    3.22638880    1.88043241    0.89070307     12.90177241    4.72070469    2.44481133      0.00000000    0.00000000    0.00000000
    1    2.27806579    2.61552449    1.94311575     14.73083905    7.61068415    1.97589259      0.00000000    0.00000000    0.00000000
    8    2.66020959   -4.59340564   -1.82072669     63.49822840    4.27998121   37.35390511      0.00000000    0.00000000    0.00000000
    1    2.75485573   -5.57217914   -2.20721226      3.30732592   -9.19246991   -5.59358008      0.00000000    0.00000000    0.00000000
    1    3.57501130   -4.16859646   -2.13036775      5.63436569    6.24863802    3.85690424      0.00000000    0.00000000    0.00000000
    8    5.08584377   -6.27029810   -5.65617400     31.09430438  -10.66003149   20.94151418      0.00000000    0.00000000    0.00000000
    1    4.09078057   -5.97873692   -5.44526744     -9.65944621   -0.01630233   -3.78903889      0.00000000    0.00000000    0.00000000
    1    5.18387195   -5.81266489   -6.59435864     -3.72378466   -6.03037794  -11.33873961      0.00000000    0.00000000    0.00000000
    8    5.27072096   -0.64225255    5.11231653     -5.34180678   18.57458250    9.85106502      0.00000000    0.00000000    0.00000000
    1    5.91783254   -1.35200387    5.38046922      4.10987669  -13.12938243    0.27164030      0.00000000    0.00000000    0.00000000
    1    4.68981549   -0.87875967    4.32689832     -5.29776553   -4.67308528   -5.61905869      0.00000000    0.00000000    0.00000000
    8    0.64972542    2.90929570   -4.82317834     10.67984413   -2.79150113   23.85288774      0.00000000    0.00000000    0.00000000
    1    0.77132657    3.25890784   -5.78645118     -5.46871222   -2.72398596  -14.19260653      0.00000000    0.00000000    0.00000000
    1    0.71033224    1.92020553   -4.98770217     -6.88882037   -2.82990423  -14.56802458      0.00000000    0.00000000    0.00000000
    8    1.88777467    2.57191269   -1.86523546    -11.32449339   18.29852522   -9.11775908      0.00000000    0.00000000    0.00000000
    1    1.82491780    1.78439077   -1.18737595      6.73902214   -3.81209028    7.75464817      0.00000000    0.00000000    0.00000000
    1    1.38661993    2.21567807   -2.72006603     12.87057691   -1.33749383   -4.07234546      0.00000000    0.00000000    0.00000000
    8    5.13272568    2.07957801    0.03105990     -3.05719179  -20.50239066    6.24183800      0.00000000    0.00000000    0.00000000
    1    4.86702297    1.88573165   -0.98296126     -8.89717116    0.09634026  -12.07204805      0.00000000    0.00000000    0.00000000
    1    5.50185299    3.05915748   -0.03472938    -12.08047202    4.05136546   -1.35866549      0.00000000    0.00000000    0.00000000
    8   -0.33316104    4.21993331   -0.58523324     -7.23721491   23.55404960    2.92071067      0.00000000    0.00000000    0.00000000
    1    0.44958334    3.71447659   -1.00557420     11.72631729   -9.00544196   -1.41129303      0.00000000    0.00000000    0.00000000
    1   -0.65097727    3.45884250   -0.00323968      2.28642579  -12.90300430    5.76396651      0.00000000    0.00000000    0.00000000
    8    0.39881715   -4.69123204   -2.58221909    -85.67837126  -11.91038796  -53.30512443      0.00000000    0.00000000    0.00000000
    1    0.33243697   -5.30389813   -1.75078607      7.08714161   -4.64637313    5.92752127      0.00000000    0.00000000    0.00000000
    1    0.34206346   -3.67067909   -2.27481961      0.19315091   14.70160529   12.53302782      0.00000000    0.00000000    0.00000000
    8   -4.06690709    2.87228611   -0.05388224      7.09641009  -24.56432560   25.00763224      0.00000000    0.00000000    0.00000000
    1   -4.60886640    2.02695050    0.03842623     -7.01900173   -7.63056478   -3.16553478      0.00000000    0.00000000    0.00000000
    1   -4.89289923    3.42273364   -0.33776743     -4.95371969    6.37365504   -6.30426232      0.00000000    0.00000000    0.00000000
    8   -1.41091396    2.17763560    1.40910726     19.99152525  -13.84108010  -34.69626170      0.00000000    0.00000000    0.00000000
    1   -2.44390189    1.98689989    1.17155172     -6.26440306   -3.95187737   -3.77371504      0.00000000    0.00000000    0.00000000
    1   -1.20312086    1.18660383    1.29216830      0.28178206   -8.11391462   -3.88871308      0.00000000    0.00000000    0.00000000
    8    3.30816184    6.45609642   -0.10216932     -8.06568610   13.35601525   18.52670165      0.00000000    0.00000000    0.00000000
    1    3.22186143    6.27432835   -1.11014530     -0.06288805   -2.45697610  -11.52512234      0.00000000    0.00000000    0.00000000
    1    4.10094674    5.84039982    0.09716940    -17.26639845   -9.21324250    3.10412932      0.00000000    0.00000000    0.00000000
    8   -1.58853744   -3.73694766    4.17755481    -19.18679396    5.71677455   11.82289158      0.00000000    0.00000000    0.00000000
    1   -1.92339829   -4.37342496    3.45407252     -1.72308485  -13.02069010   -9.58217683      0.00000000    0.00000000    0.00000000
    1   -0.98287732   -3.18506775    3.60185187      4.58528072    3.50423828  -12.52155605      0.00000000    0.00000000    0.00000000
    8    3.51429024    7.02701090    7.05642615    -28.80073869   -4.62353064  -28.11287096      0.00000000    0.00000000    0.00000000
    1    3.28212412    6.47286085   -6.54911174     15.07864840   -5.98190862   -2.72039685      0.00000000    0.00000000    0.00000000
    1    4.52100548    7.03144588    7.19098485      5.36180937   -5.67248571    1.63056609      0.00000000    0.00000000    0.00000000
    8   -7.12032896    2.94587994    1.40702120     21.20815029   -3.71595892   24.00098848      0.00000000    0.00000000    0.00000000
    1   -6.59439645    2.39844328    0.72903261     -4.99921315   -9.35242076   -6.45647438      0.00000000    0.00000000    0.00000000
    1    6.70301160    3.55200654    0.83559686     -4.36649140   10.19651753    8.18794164      0.00000000    0.00000000    0.00000000
    8   -3.02393324    4.63919518   -1.67750937     -4.72752369    6.02735664  -39.92374119      0.00000000    0.00000000    0.00000000
    1   -2.49508171    3.75991673   -1.73404584     13.42390852   -1.97771312   11.60348496      0.00000000    0.00000000    0.00000000
    1   -2.71387226    5.08775113   -0.79293713      2.74642824    2.39529349    8.66166074      0.00000000    0.00000000    0.00000000
    8   -0.03906081   -2.21902926    5.79984400    -10.43216112   16.41922376   19.44050897      0.00000000    0.00000000    0.00000000
    1    0.45194741   -2.85445197    5.22482637      2.35613807   -1.15718735   -0.47803560      0.00000000    0.00000000    0.00000000
    1   -0.67349244   -1.89814650    5.07825080      4.38486441   -0.14002079   -4.46534232      0.00000000    0.00000000    0.00000000
    8   -6.02202330    6.52479962    2.83455281    -25.79988185    2.08407375   18.89751152      0.00000000    0.00000000    0.00000000
    1   -6.04461592   -7.19797666    2.09061791      5.76459750    7.80336926  -14.15745202      0.00000000    0.00000000    0.00000000
    1   -4.99844233    6.53754012    2.96385462      7.55972277   -2.30730027   -0.28808478      0.00000000    0.00000000    0.00000000
    8   -2.97635066   -1.81817133    0.82310826     36.85069861   11.54468282   11.34182732      0.00000000    0.00000000    0.00000000
    1   -3.78685782   -2.32145141    1.25809476     -8.45018818   -1.58343644   -8.91842781      0.00000000    0.00000000    0.00000000
    1   -2.77029648   -2.49290147    0.08378424     -7.07598108   -5.42466782   -6.27212266      0.00000000    0.00000000    0.00000000
    8   -2.40832543    1.17133148   -5.18280052     14.36633245   10.68187673   -7.39325476      0.00000000    0.00000000    0.00000000
    1   -3.14843979    1.13162154   -5.83575886     -4.52825727  -12.28876453    3.43488879      0.00000000    0.00000000    0.00000000
    1   -2.50265154    0.28690493   -4.64417935     -6.89267384  -10.17147045   -1.58263532      0.00000000    0.00000000    0.00000000
    8   -1.33614201    0.77843978    5.48813341    -10.52450050  -12.87469018    4.29323409      0.00000000    0.00000000    0.00000000
    1   -0.79046440    1.03618761    4.64683313      7.91741198    6.37597276   -9.30841325      0.00000000    0.00000000    0.00000000
    1   -1.60427814    1.70903386    5.78258267      0.21973007    5.42157338   -2.30907403      0.00000000    0.00000000    0.00000000
    8   -4.70181766    5.41385477    0.72271652      8.64232367    5.09852056    8.11948324      0.00000000    0.00000000    0.00000000
    1   -5.41496155    5.50440378    0.00005904      1.22381461    2.13859858   -6.69741967      0.00000000    0.00000000    0.00000000
    1   -4.90582193    4.55746559    1.22166108     -5.41049412   -3.06137328    4.95003417      0.00000000    0.00000000    0.00000000
    8    3.41697470    2.77322325    4.38662328    -24.70909170   21.63129075    8.87048320      0.00000000    0.00000000    0.00000000
    1    3.14234272    1.85051135    4.79745241      8.80560089  -15.91108827    4.38929133      0.00000000    0.00000000    0.00000000
    1    4.40632891    2.66154014    4.51113930     11.55488699  -11.94276027   -2.43844544      0.00000000    0.00000000    0.00000000
    8   -2.33385904    4.13115940    2.59589198    -15.57576546   67.44186576   42.12688231      0.00000000    0.00000000    0.00000000
    1   -1.70810852    4.31033845    1.76201516      4.57763710  -16.26213237   -6.07785157      0.00000000    0.00000000    0.00000000
    1   -3.13079990    3.58104964    2.18649014     -4.74233744   -8.48280583    0.50929569      0.00000000    0.00000000    0.00000000
    8   -5.04479372   -4.24829465    3.44048737    -25.87964929   12.10130501   28.14525408      0.00000000    0.00000000    0.00000000
    1   -4.07923284   -3.92528036    3.32905663      3.64367620   -8.72056287   -7.60831713      0.00000000    0.00000000    0.00000000
    1   -5.24405785   -4.36534205    2.45769360      3.69184353   -5.60505007  -11.86061146      0.00000000    0.00000000    0.00000000
    8   -5.05057477    4.60340268   -4.27187805     18.77125046   -0.15186183   -3.75199384      0.00000000    0.00000000    0.00000000
    1   -4.79639692    4.46606844   -3.27376478      1.10986369    4.05849774    6.88037024      0.00000000    0.00000000    0.00000000
    1   -6.06640780    4.82796605   -4.15663017     -5.20229761   -0.59442930   -6.58584775      0.00000000    0.00000000    0.00000000
    8    1.59012275   -5.53419105    5.58865730      3.16449734   28.00969768    0.45288542      0.00000000    0.00000000    0.00000000
    1    2.25197029   -6.33328811    5.56283249      1.31200440   -9.02310365    2.88942238      0.00000000    0.00000000    0.00000000
    1    0.68159246   -5.94338259    5.57822228     -0.09980769  -14.07384856   -1.38028279      0.00000000    0.00000000    0.00000000
    8   -3.04815060   -5.71510659    2.34641900      9.62994398   37.19568141    6.79523593      0.00000000    0.00000000    0.00000000
    1   -3.51031031   -6.63993817    2.50036038      4.36415791   -6.30463962   -0.46065312      0.00000000    0.00000000    0.00000000
    1   -2.36078914   -5.95857458    1.62966000     -1.78592262  -18.25280165   -4.27492156      0.00000000    0.00000000    0.00000000
    8   -2.16063410    6.51884272    1.07038812     18.13430192   19.77099569  -19.49655907      0.00000000    0.00000000    0.00000000
    1   -1.29557175    6.32036587    1.64050068     10.49457420   -4.05989739   10.08111583      0.00000000    0.00000000    0.00000000
    1   -2.83851809    5.84199863    1.48128648    -11.74448137   -9.44215854    2.35528131      0.00000000    0.00000000    0.00000000
    8   -5.95332256   -5.78631292    0.53112838      9.52374905   -5.53635294   28.27438808      0.00000000    0.00000000    0.00000000
    1   -6.33732767   -5.04317525   -0.06503483    -10.13336538    3.06760824  -10.08768123      0.00000000    0.00000000    0.00000000
    1   -5.78995093   -6.49338999   -0.16425131      3.45878159   -0.89521282  -11.22122591      0.00000000    0.00000000    0.00000000
    8    6.83110724   -3.00100479    4.56521844    -20.79886309   -9.58907810   12.93930850      0.00000000    0.00000000    0.00000000
    1    6.91868228   -2.25331310    3.87510462     15.82582814    7.87421049  -12.97685749      0.00000000    0.00000000    0.00000000
    1   -6.64714305   -3.36099312    4.34147120     15.92175961    1.41405368   -9.98495573      0.00000000    0.00000000    0.00000000
    8   -6.01653718   -6.83217841    5.33460848    -18.75523595   22.39258287   31.87498213      0.00000000    0.00000000    0.00000000
    1   -5.90764449   -6.23409953    4.45721820      8.17696079   -3.33563593   -9.97638483      0.00000000    0.00000000    0.00000000
    1   -6.13002595    6.62438868    4.97605967      8.27583517   -4.49210033  -10.44101258      0.00000000    0.00000000    0.00000000
    8   -6.91980780    1.95722119   -3.52685446     -2.14320377  -36.90455070   11.08553562      0.00000000    0.00000000    0.00000000
    1    7.14205229    2.77039576   -3.07907699      0.89755958   11.28734735   -5.07474578      0.00000000    0.00000000    0.00000000
    1   -6.00991377    1.97132024   -3.06149645     13.65107977    5.65121210  -10.14852270      0.00000000    0.00000000    0.00000000
    8    1.78369900   -2.87178599    0.73337383    -28.95619412   33.62495083    1.49170611      0.00000000    0.00000000    0.00000000
    1    2.03288737   -3.82155236    0.30679783      9.94491758   -6.93911572   -0.48112456      0.00000000    0.00000000    0.00000000
    1    2.25986754   -2.92771539    1.63593973     13.31409055   -8.88779992    5.16559114      0.00000000    0.00000000    0.00000000
    8    6.20315145   -5.25738450   -1.17356324     19.45021105   -7.42023973   -4.24807940      0.00000000    0.00000000    0.00000000
    1    6.12703308   -6.07162192   -1.81306461     -9.90473536   -0.03358675   -2.55416099      0.00000000    0.00000000    0.00000000
    1    5.22495959   -4.95034557   -1.28190055     -4.06284725    5.36650670    3.13395441      0.00000000    0.00000000    0.00000000
    8    6.31583815    3.92324388   -4.80146507    -17.63020729   20.59198302   15.95214696      0.00000000    0.00000000    0.00000000
    1    5.81533643    3.23740013   -5.38387218      0.77226632   -6.78550252   -4.96832440      0.00000000    0.00000000    0.00000000
    1    6.66446704    4.38255658   -5.61875533      9.10115116    2.43451124   -9.73911274      0.00000000    0.00000000    0.00000000
    8   -3.04703197   -5.52849090   -4.52867995    -19.33391361    5.85450380  -10.76595586      0.00000000    0.00000000    0.00000000
    1   -4.01209790   -5.67484937   -4.33394537      0.46423205   -0.39200168    5.18115690      0.00000000    0.00000000    0.00000000
    1   -2.54072385   -6.26375038   -3.97424838    -12.41745673   -5.38187732    9.69619063      0.00000000    0.00000000    0.00000000
    8   -3.42905180    6.70213929    4.54379242     -6.84530589   -4.13406567  -26.59838024      0.00000000    0.00000000    0.00000000
    1   -2.87994587    5.84811267    4.32218519     -2.90656335    4.88879543    2.34266087      0.00000000    0.00000000    0.00000000
    1   -2.90878009    7.02559584    5.34973325      9.02970142    3.74259763   15.00912055      0.00000000    0.00000000    0.00000000
    8   -2.09393863    5.72130326   -4.21528812      9.03571881   25.88928471   -6.98950695      0.00000000    0.00000000    0.00000000
    1   -2.85333768    4.98059147   -4.49208324     -3.21290331   -7.89735136    4.39051474      0.00000000    0.00000000    0.00000000
    1   -1.90411579    5.35419675   -3.29847327     -5.45705431   -7.73518046   10.02414820      0.00000000    0.00000000    0.00000000
    8   -1.29302200    4.71383225    5.37446537     -4.05981593  -39.87082895  -15.17013070      0.00000000    0.00000000    0.00000000
    1   -2.15524362    4.87234725    5.92904853     -7.57813168    5.64243473   12.22198403      0.00000000    0.00000000    0.00000000
    1   -1.81741324    4.84265347    4.49955149      4.11352562  -12.42082627   -6.70790162      0.00000000    0.00000000    0.00000000
    8    7.07324399   -0.32156937   -5.64648892     10.18997095  -15.21280339   -9.96518416      0.00000000    0.00000000    0.00000000
    1    7.11479360    0.46517685   -4.99103042      0.38330581   14.13902960   11.13180591      0.00000000    0.00000000    0.00000000
    1    6.03931892   -0.36464534   -5.49870684     -6.37170185    5.92128010    1.28094608      0.00000000    0.00000000    0.00000000
    8   -5.73325410    0.83062214    4.95594958      1.50038299  -18.25791504   -8.45724699      0.00000000    0.00000000    0.00000000
    1   -5.29627530    1.61272424    5.44801910      5.55779935    0.35724046   15.80941770      0.00000000    0.00000000    0.00000000
    1   -5.09923552    0.05751089    5.17686357     11.86378038   -2.71137892    6.15230110      0.00000000    0.00000000    0.00000000
    8    4.96819244   -5.05031873    2.59024641      6.28865370   -1.75979534   27.30142715      0.00000000    0.00000000    0.00000000
    1    4.24626837   -4.77924968    1.87563071     -7.16855197   -6.60396258  -14.47904719      0.00000000    0.00000000    0.00000000
    1    5.58756030   -4.19986935    2.72789560      6.96547325    7.25245441   -7.33276875      0.00000000    0.00000000    0.00000000
    8   -5.05637002    6.83338287   -1.86254570    -26.02792410   -5.36932175   11.97059348      0.00000000    0.00000000    0.00000000
    1   -4.23181979   -7.06056952   -2.13227901     13.17215599    4.39739812    0.26401772      0.00000000    0.00000000    0.00000000
    1   -5.63047476    7.10809921   -2.68230624      1.08188647    7.42727446  -14.31845663      0.00000000    0.00000000    0.00000000
    8    3.44568969   -2.57359427    3.31843627     -4.42434140   16.15714261  -25.95859089      0.00000000    0.00000000    0.00000000
    1    3.74725475   -3.58641684    3.11523435      1.54934528  -11.53193821   10.91861336      0.00000000    0.00000000    0.00000000
    1    3.32352746   -2.66983116    4.36615463     -4.13695723   -4.64215662   19.90178238      0.00000000    0.00000000    0.00000000
    8    2.45588679   -5.56865494    1.22623607      9.71140516   30.14396785    5.82256008      0.00000000    0.00000000    0.00000000
    1    2.15568006   -5.51092485    0.19171418      1.93926659  -13.29560528  -11.65497357      0.00000000    0.00000000    0.00000000
    1    2.49895714   -6.59261046    1.20505393      9.96433225    1.77356543  -15.05287198      0.00000000    0.00000000    0.00000000
    8   -2.83560306   -1.85717733   -5.19317624     11.30885377   15.68201138   23.86670663      0.00000000    0.00000000    0.00000000
    1   -3.68013040   -2.21782694   -5.63379950     13.57196388   -7.21711862    0.42400053      0.00000000    0.00000000    0.00000000
    1   -2.42168738   -2.36685105   -5.98608185      0.89560418  -11.57708467  -11.30378177      0.00000000    0.00000000    0.00000000
    8   -2.71404983   -3.90184775    7.09441796    -20.46239477   22.55670046   11.63279999      0.00000000    0.00000000    0.00000000
    1   -2.46245414   -3.85134352    6.10009055     12.58813591   -6.43582809  -10.52982350      0.00000000    0.00000000    0.00000000
    1   -2.43095412   -4.85862238   -7.10615479      2.86266554   -5.69092507   -6.63803237      0.00000000    0.00000000    0.00000000
    8    1.93367076    5.55383836    4.84189208     15.86425142   -5.70918429  -29.45063070      0.00000000    0.00000000    0.00000000
    1    2.14772592    4.54159772    4.92556146      2.21150180   -8.01815533    8.43311677      0.00000000    0.00000000    0.00000000
    1    2.48596674    5.85525352    5.61433409      7.96621119    3.40037904    9.45414103      0.00000000    0.00000000    0.00000000
    8   -4.22609237    2.81085319    6.74901093     -6.90602844  -15.15122949  -24.34470317      0.00000000    0.00000000    0.00000000
    1   -4.22123777    2.03141386   -7.05528263     -1.51709326   -0.16563328    6.38606815      0.00000000    0.00000000    0.00000000
    1   -3.82975551    3.52223733   -7.09260364      2.56412671   13.42941126    8.02655216      0.00000000    0.00000000    0.00000000
    8    4.25669974    4.22567393   -2.48706316     20.22293143   21.58140153   13.83502794      0.00000000    0.00000000    0.00000000
    1    3.55345086    3.52926256   -2.45664859    -17.29725542  -10.09441910    2.16948285      0.00000000    0.00000000    0.00000000
    1    4.64718782    3.96863471   -3.40114207      1.54829989   -4.46265529  -10.49279710      0.00000000    0.00000000    0.00000000
    8   -2.44232694   -2.64058061   -2.24216341     -1.97245397    1.88466737   23.27901862      0.00000000    0.00000000    0.00000000
    1   -3.30070051   -3.21556510   -2.12258217     -7.34537018   -4.87140449  -10.44135303      0.00000000    0.00000000    0.00000000
    1   -2.74501958   -2.17052010   -3.09528065     -3.68862395   -1.24297221  -16.28697528      0.00000000    0.00000000    0.00000000
    8    5.70191611    5.11373032    0.55466120     19.66382075  -16.69133418  -31.43639809      0.00000000    0.00000000    0.00000000
    1    5.34459278    5.60672159   -0.28450919      3.77576413    6.69545830   -3.22140901      0.00000000    0.00000000    0.00000000
    1    5.20874580    5.63794121    1.34476457     -7.73669497    1.50331106   17.98275137      0.00000000    0.00000000    0.00000000
    8    3.94356621    0.94632018   -2.74864448     18.05257667    1.66386536   16.28586436      0.00000000    0.00000000    0.00000000
    1    4.23929380    1.54509112   -3.44303117     -2.60812822   -3.20254862  -12.01519737      0.00000000    0.00000000    0.00000000
    1    3.41677930    0.35502282   -3.41362530     -4.06511278   -3.00406609   -3.45313548      0.00000000    0.00000000    0.00000000
    8    4.18126643   -7.12730656   -2.69681682      6.76459179   16.59951410   15.09216672      0.00000000    0.00000000    0.00000000
    1    3.83467429   -7.11170189   -3.67879043     -7.18055019   -7.95155550   -9.58600014      0.00000000    0.00000000    0.00000000
    1    4.72920977    6.41063218   -2.75188995     -4.00033197  -11.42323379   -8.37441869      0.00000000    0.00000000    0.00000000
    8   -3.88144659    1.90870733   -2.66839816    -30.28716479   -9.82517035   -3.41818188      0.00000000    0.00000000    0.00000000
    1   -2.88866846    1.83252612   -2.79499193     16.34145121    2.22969072   -2.82534819      0.00000000    0.00000000    0.00000000
    1   -3.95698968    2.80033145   -2.20714346     10.68221971    6.53782724    5.80000759      0.00000000    0.00000000    0.00000000
    8    5.56739285    4.67302272    6.03248211      0.30645683    0.98256541   24.44744361      0.00000000    0.00000000    0.00000000
    1    5.25219515    5.15628439    5.16180454      3.25200676    7.46382005   -9.21404326      0.00000000    0.00000000    0.00000000
    1    5.92451892    3.87271698    5.53234112      6.70123296   -8.40601812  -11.41361358      0.00000000    0.00000000    0.00000000
    8    3.93812919   -1.00548314   -5.22473878     22.00065819   13.29581731   -2.34455306      0.00000000    0.00000000    0.00000000
    1    3.03671002   -0.90523120   -4.75545225    -18.01437407   -9.02387497    4.95862293      0.00000000    0.00000000    0.00000000
    1    3.59699154   -1.73780222   -5.92044706     -0.01466904   -7.09402048    6.25902476      0.00000000    0.00000000    0.00000000
    8   -0.13007533   -1.44702906    2.69930715    -13.83739537  -19.92298792    8.71341840      0.00000000    0.00000000    0.00000000
    1    0.20164819   -0.51913059    2.32739317      4.88788283   12.44492133    3.94730823      0.00000000    0.00000000    0.00000000
    1    0.56687462   -2.08704209    2.26052384      8.09572385    0.62912263   -7.05494152      0.00000000    0.00000000    0.00000000
    8    0.05008899   -1.89380412   -1.57031416     25.97606120  -40.12105476  -25.24887544      0.00000000    0.00000000    0.00000000
    1   -0.86117564   -1.59305365   -1.23645712    -11.08789143   -2.06947412  -10.09229325      0.00000000    0.00000000    0.00000000
    1    0.53871403   -1.83754607   -0.65918429     11.91569121  -22.09847485   -9.37849482      0.00000000    0.00000000    0.00000000
    8   -0.06490832    7.11586114   -1.07209182     14.49129035   27.41825773   -5.46904228      0.00000000    0.00000000    0.00000000
    1   -0.72801914   -7.20297996   -0.30932321     -1.82478072  -18.55780005    7.88127015      0.00000000    0.00000000    0.00000000
    1    0.27492988    6.14378958   -0.99926224     -5.03447607  -15.68771409    5.88483345      0.00000000    0.00000000    0.00000000
    8    2.74813542    0.62940155    6.49675818      3.40675529   25.60398386   -5.47837455      0.00000000    0.00000000    0.00000000
    1    3.64429603    0.07985689    6.30814116      7.87672362  -13.17863934   -7.11172036      0.00000000    0.00000000    0.00000000
    1    2.20640401   -0.14111602    6.91285435     -8.45300374   -8.74093180   -2.31630961      0.00000000    0.00000000    0.00000000
    8    6.52460029    2.13733988    4.35796068    -34.16074932   35.77883381    2.75019155      0.00000000    0.00000000    0.00000000
    1    6.66086959    1.17124406    4.56080810      8.98823523  -11.83742463    2.99564151      0.00000000    0.00000000    0.00000000
    1    6.94810518    2.18917143    3.42899468     -1.55767554   -4.31742704   -8.78076061      0.00000000    0.00000000    0.00000000
    8    0.68540971    1.38702629    3.01222340     -2.62821445  -13.42207691   17.13081738      0.00000000    0.00000000    0.00000000
    1    0.70989502    1.76552472    2.05671988     -2.31402141    7.33396567   -9.61614762      0.00000000    0.00000000    0.00000000
    1    1.69390272    1.41254778    3.22850225     10.16665741   -2.82466413   -0.64356516      0.00000000    0.00000000    0.00000000
    8   -6.38392557    0.87267920   -0.67039723     20.42192350   13.96126613   10.16820579      0.00000000    0.00000000    0.00000000
    1    7.14879708    0.47180624   -0.93024216     -8.83362182   -5.93990267   -0.23381164      0.00000000    0.00000000    0.00000000
    1   -6.20662813    1.49656753   -1.46944919     -4.78023219   -5.00098691   -6.09655255      0.00000000    0.00000000    0.00000000
    8    0.18811404    0.08952050   -6.48610441     24.55404452    3.98106885   29.00643377      0.00000000    0.00000000    0.00000000
    1    0.08931489   -0.61411644    7.19762381     -9.54645398   -9.20717957  -13.77617404      0.00000000    0.00000000    0.00000000
    1   -0.77115796    0.50264276   -6.47876058    -11.84722156    1.28822254   -5.39628618      0.00000000    0.00000000    0.00000000
    8   -6.66196522    4.19582982   -1.34960516     11.34034367  -22.38735441   -1.46441060      0.00000000    0.00000000    0.00000000
    1    6.94778402    4.46448066   -0.77116471     -7.95501699   11.67711271    4.73688248      0.00000000    0.00000000    0.00000000
    1   -6.66370658    5.06704017   -1.87478774      0.87328729   10.38961748   -0.14601798      0.00000000    0.00000000    0.00000000
    8    0.88284738    6.85010610    2.19747236    -23.31118733   -4.48344582   -8.24365187      0.00000000    0.00000000    0.00000000
    1    1.76565143    6.86299762    1.65745109     -2.32012473  -15.40038418    5.89599629      0.00000000    0.00000000    0.00000000
    1    1.28021204    6.48554972    3.07338575      6.11448583   -4.67063210   11.88229551      0.00000000    0.00000000    0.00000000
    8   -6.05187397   -4.39447751    6.97006643     -1.41864536   13.68946933   17.95116457      0.00000000    0.00000000    0.00000000
    1   -6.25841208   -5.29118814    6.54709563      6.32167836  -16.58509916  -11.79643158      0.00000000    0.00000000    0.00000000
    1   -5.12792574   -4.19741397    6.51986247      4.37610577   -7.27145350   -9.64266667      0.00000000    0.00000000    0.00000000
    8   -5.30005334   -3.10430408   -5.07778047    -12.06133109   10.45914842   15.29079739      0.00000000    0.00000000    0.00000000
    1   -5.13504789   -2.29803224   -5.67372429    -10.97435443   -1.49886360   -3.78581995      0.00000000    0.00000000    0.00000000
    1   -5.12522154   -3.77459287   -5.86194525     -4.81857014   -7.54573053  -14.93200335      0.00000000    0.00000000    0.00000000
    8   -6.20941762   -1.14574753    2.74956814    -20.66373303   -5.81829166   10.26348792      0.00000000    0.00000000    0.00000000
    1   -5.58536023   -1.28115694    1.97666479      2.62235981    0.56567175  -12.68638672      0.00000000    0.00000000    0.00000000
    1   -5.61900122   -0.51142334    3.29889467      6.90776289    7.22830017    3.27696919      0.00000000    0.00000000    0.00000000
    8    4.59567923   -3.66737539   -6.55355345     -7.01645181   14.45784512    9.35878934      0.00000000    0.00000000    0.00000000
    1    3.82798639   -3.99119609   -5.95373604     -0.70510605   -1.89322997    1.04763718      0.00000000    0.00000000    0.00000000
    1    5.12933055   -4.51726336   -6.81025371      2.22977287   12.48667791   -9.49852795      0.00000000    0.00000000    0.00000000
    8   -5.87622712   -3.69204626   -2.45041100     19.70355780    0.97257789   22.80568028      0.00000000    0.00000000    0.00000000