 BEGIN_INFO
   #
   # This is a XCRYSDEN-Structure-File
   # aimed for Visualization of Fermi Surface
   #
   # Case: Tight-binding calculation
   #
   # Launch as: xcrysden --xsf HICOLM.XSF
   #
 END_INFO
 # estrutura final
CRYSTAL
PRIMVEC
      19.00000000       0.00000000       0.00000000
       0.00000000      19.00000000       0.00000000
       0.00000000       0.00000000      19.00000000
PRIMCOORD
  300    1
    8    5.29918173   -6.77099384    0.93195735     28.83047635  118.83396355   50.80274435      0.00000000    0.00000000    0.00000000
    1    4.72629973   -5.95958484    0.81624235      1.58336983    1.37419718    4.44769274      0.00000000    0.00000000    0.00000000
    1    5.30566473   -7.56646184    1.53789035     -3.35628845  -11.78914770    4.00207645      0.00000000    0.00000000    0.00000000
    8    5.45247375    1.20521291   -3.40259415   -990.27549648   99.66027711 1418.91055608      0.00000000    0.00000000    0.00000000
    1    5.83047775    0.32743591   -3.69685415     30.59317233  -68.58262163  -55.62737224      0.00000000    0.00000000    0.00000000
    1    5.81885675    2.11078891   -3.18890715     15.86051720   28.21551840  -11.99351594      0.00000000    0.00000000    0.00000000
    8    2.38641576    1.12791605   -7.63644147      0.10211970  -25.25356665  -25.54209693      0.00000000    0.00000000    0.00000000
    1    2.11506276    1.51927205   -8.51574547     -0.75370970    3.57702674    7.06082431      0.00000000    0.00000000    0.00000000
    1    3.19059676    0.65424305   -7.27742247     -0.48657346    4.15319382    5.80499994      0.00000000    0.00000000    0.00000000
    8   -3.19874240    4.06960241    5.77723101    -49.41304948  -53.80261974  188.71175912      0.00000000    0.00000000    0.00000000
    1   -2.41186340    3.50257941    6.02069201     -1.41963572    5.41494608   -2.01316503      0.00000000    0.00000000    0.00000000
    1   -4.06128440    3.93207741    5.29032901     13.52555395    1.45358099    2.21432361      0.00000000    0.00000000    0.00000000
    8   -2.50085456   -8.01093072   -3.98972790     -0.54200664    0.22301687   -0.32085862      0.00000000    0.00000000    0.00000000
    1   -1.83031056   -7.48908272   -3.46245990     -0.99926766   -0.46679908   -2.47595051      0.00000000    0.00000000    0.00000000
    1   -3.06483456   -7.84686672   -4.79903390     -2.53402553    4.25911052   -1.62313076      0.00000000    0.00000000    0.00000000
    8    0.32717213   -3.61231938   -7.06095310   -121.86574999 -138.10918354  -32.83832875      0.00000000    0.00000000    0.00000000
    1    0.04495213   -4.20547338   -7.81493310     -0.03115390    2.20134511    0.18190916      0.00000000    0.00000000    0.00000000
    1    0.24502513   -2.64031238   -6.84090610      1.21334519    0.44304666  -11.44706183      0.00000000    0.00000000    0.00000000
    8    3.42303350   -1.49097607    7.31611487     17.87296668  -15.49466827   15.17481676      0.00000000    0.00000000    0.00000000
    1    2.96077050   -2.37712007    7.34819587      9.42659197    1.76184448   -7.69629479      0.00000000    0.00000000    0.00000000
    1    3.15579050   -0.53538107    7.44015087     -5.81601867    7.42924004   -4.97934451      0.00000000    0.00000000    0.00000000
    8   -6.43772471   -0.03314087    4.21779775      1.25522264   -0.38984005   -5.54445892      0.00000000    0.00000000    0.00000000
    1   -6.95520071    0.82016713    4.15416175      1.34758476   -4.68151966    0.48464445      0.00000000    0.00000000    0.00000000
    1   -6.50314371   -0.87589887    4.75206775      0.08855958    4.56260590    1.25788747      0.00000000    0.00000000    0.00000000
    8    0.45143690    5.17109649    2.50584537    198.27210700-1422.71838573 1500.32176461      0.00000000    0.00000000    0.00000000
    1   -0.16539310    5.89440949    2.81617737    -28.16687190    3.09918664    9.18562387      0.00000000    0.00000000    0.00000000
    1    0.37285290    4.35575449    1.93225337     17.98835814   10.15237674   -9.73448092      0.00000000    0.00000000    0.00000000
    8   -3.52989520    5.65905450   -5.21665669      5.53887264    4.25799983   -5.18912533      0.00000000    0.00000000    0.00000000
    1   -4.46634720    6.00967050   -5.20697369     -5.99629727   -1.60323058    1.32659628      0.00000000    0.00000000    0.00000000
    1   -2.62584520    6.02813850   -5.43215169     -2.45976202    0.47221791    0.31717896      0.00000000    0.00000000    0.00000000
    8   -5.10591025    0.87569739    1.41022825     92.79853143  -91.34756470   32.21450142      0.00000000    0.00000000    0.00000000
    1   -5.82406225    0.17994239    1.42241025      2.34562719    2.09969104   -2.46256085      0.00000000    0.00000000    0.00000000
    1   -4.42959525    1.22279739    2.05991025     -1.61618109   -7.33564972   -1.60140613      0.00000000    0.00000000    0.00000000
    8    0.36424611   -7.25850955   -7.36116858     -2.85697757   -2.54393042    1.73892084      0.00000000    0.00000000    0.00000000
    1   -0.01071289   -6.33148555   -7.36191458      1.88551336    0.13656483    3.11641385      0.00000000    0.00000000    0.00000000
    1   -0.01003689   -8.18579555   -7.35693458      1.15491902    0.51385262    0.71785567      0.00000000    0.00000000    0.00000000
    8   -5.01727963    1.86622861    7.11503396   -229.30684138 1199.03693866  410.66169867      0.00000000    0.00000000    0.00000000
    1   -4.07559763    1.58899361    6.92439696      0.03340552  -11.29814423   -8.75874098      0.00000000    0.00000000    0.00000000
    1   -5.78931063    2.20717561    6.57866596      0.76215841   -0.75139808   -1.08716295      0.00000000    0.00000000    0.00000000
    8   -8.54314190   -4.22850673   -2.77769958      2.91567610   11.14934042   -2.64747628      0.00000000    0.00000000    0.00000000
    1   -9.41804990   -4.70980673   -2.83110858      1.87780644   -4.22078494   -1.21885049      0.00000000    0.00000000    0.00000000
    1   -7.63450690   -4.42656673   -2.41011058     -1.23832976    0.66349341   -0.38275833      0.00000000    0.00000000    0.00000000
    8   -3.82966960   -0.00724949   -5.97959494     -1.59465785  -10.79611578    5.77222452      0.00000000    0.00000000    0.00000000
    1   -4.80123560    0.06731351   -5.75494894     -0.92420523    5.10163663   -2.87727782      0.00000000    0.00000000    0.00000000
    1   -3.09869960    0.62726551   -6.23067494     -2.20648841    1.47780849   -1.83746930      0.00000000    0.00000000    0.00000000
    8   -8.41847493   -0.03627478   -8.53721520     -5.53058595  -11.86407866   -5.60748512      0.00000000    0.00000000    0.00000000
    1   -8.51287293    0.95918522   -8.54799420     -1.10841247    4.61373321    0.19463160      0.00000000    0.00000000    0.00000000
    1   -8.97912493   -0.81504578   -8.81855820      1.78266314   -1.03090242    3.42244442      0.00000000    0.00000000    0.00000000
    8    1.84126016   -7.00869894    5.92413774    413.36256125-1062.42552039 1011.99468267      0.00000000    0.00000000    0.00000000
    1    1.52317816   -6.28207694    6.53308074     46.26505290   17.25411796   61.93699073      0.00000000    0.00000000    0.00000000
    1    2.71204416   -7.26667094    5.50562474     14.52575274   20.50296456  -37.93338870      0.00000000    0.00000000    0.00000000
    8    8.01361554    4.10432765    3.13032477     -6.81178502   -2.14774648   -4.80789774      0.00000000    0.00000000    0.00000000
    1    8.54741154    3.26107265    3.06746877      1.39523568    0.40070757   -0.93665280      0.00000000    0.00000000    0.00000000
    1    7.44368954    4.64279565    2.50967777      8.46755428   -0.61489751   -0.44147847      0.00000000    0.00000000    0.00000000
    8   -3.05745955    4.94022964   -1.56395384      5.64322741   -2.44071799   11.09615867      0.00000000    0.00000000    0.00000000
    1   -2.74689955    5.67193064   -0.95721384     -7.42396780    0.96462770   -6.42692086      0.00000000    0.00000000    0.00000000
    1   -3.04588955    3.94041564   -1.54962584     -0.44250252   -2.70946888   -6.26935534      0.00000000    0.00000000    0.00000000
    8    1.04302144    0.27278734    5.78286710    176.23244009  883.23981751 -574.44152264      0.00000000    0.00000000    0.00000000
    1    1.61629844    0.40261734    4.97387710      6.66913027    6.96655459    2.95707562      0.00000000    0.00000000    0.00000000
    1    0.11369844   -0.05030766    5.96157310      4.60226307   -6.71858467   -5.06998330      0.00000000    0.00000000    0.00000000
    8    3.43841268    6.43395440    1.55884767    924.90696686  760.88840871 -262.94517030      0.00000000    0.00000000    0.00000000
    1    2.90775968    5.58999340    1.63697667      6.38138796  -82.15253279   -5.82106394      0.00000000    0.00000000    0.00000000
    1    4.40642468    6.66961340    1.47292067     26.71803732   15.69657048   -9.89916341      0.00000000    0.00000000    0.00000000
    8   -7.83754037    3.45074754   -0.18836622   -904.50718168  617.90496845 -801.00345751      0.00000000    0.00000000    0.00000000
    1   -7.92628837    2.45567254   -0.14461022      4.34861365  -11.30505203    7.30223134      0.00000000    0.00000000    0.00000000
    1   -8.46533337    4.22715454   -0.24345722     -6.68162245   -2.64801500    0.92779743      0.00000000    0.00000000    0.00000000
    8    1.76049040   -1.95309851   -6.61067211    110.76865278  141.52711462   29.65824686      0.00000000    0.00000000    0.00000000
    1    1.73642440   -1.51603151   -7.50976011      2.09122210    3.77307463    0.73207286      0.00000000    0.00000000    0.00000000
    1    1.08382640   -2.25087051   -5.93730411     11.16990320   -4.70824165    9.57589407      0.00000000    0.00000000    0.00000000
    8    0.36128706   -7.66418281    2.29278856      0.26541950   -1.92361071   -8.06157931      0.00000000    0.00000000    0.00000000
    1   -0.04604994   -8.56091781    2.46573556     -1.37798398    9.36096888    4.24772825      0.00000000    0.00000000    0.00000000
    1    0.02868606   -6.72329181    2.22902056      0.92339787   -4.73217074   -1.41302919      0.00000000    0.00000000    0.00000000
    8   -2.27319809   -8.84931212   -9.41481662      0.32244134   -9.44085914   -0.82149838      0.00000000    0.00000000    0.00000000
    1   -3.18075709   -8.71654212    9.18684338      3.70028799    1.69189678   -0.48605830      0.00000000    0.00000000    0.00000000
    1   -1.60808809   -8.27795312   -8.93404062     -2.42834093    3.10072885   -3.64677293      0.00000000    0.00000000    0.00000000
    8   -7.78163409    7.96616070    1.98597602     -2.50201339    3.42566776    3.14364821      0.00000000    0.00000000    0.00000000
    1   -8.48898809    7.33393570    1.66989102      0.12628816   -1.37711917   -0.86997679      0.00000000    0.00000000    0.00000000
    1   -6.81175909    7.90135970    2.22073102      1.14747484   -2.01895908    1.82979960      0.00000000    0.00000000    0.00000000
    8   -6.52869851    2.61639421    0.94483153    861.68732165 -514.86458787  807.50615223      0.00000000    0.00000000    0.00000000
    1   -5.90360151    2.62396621    1.72532053      3.55946566   -7.08232546   -8.99898849      0.00000000    0.00000000    0.00000000
    1   -6.83706951    3.28051521    0.26378953    -48.04136952   23.40065823  -29.33236552      0.00000000    0.00000000    0.00000000
    8   -6.83998923    4.32546279    5.13158829      0.05735161   -9.43398406   -1.49142235      0.00000000    0.00000000    0.00000000
    1   -7.50007523    3.57532779    5.09222029     -0.84410322    1.60022447    2.90583166      0.00000000    0.00000000    0.00000000
    1   -5.84715723    4.40605679    5.21966429     -0.95615751    6.92576441    1.97085084      0.00000000    0.00000000    0.00000000
    8    3.28763598   -6.87093251   -6.06799028    -39.04286298   -7.34092333  -88.33517057      0.00000000    0.00000000    0.00000000
    1    3.82079098   -6.07697651   -5.77585228     -8.79323702   -7.26694867    4.75996395      0.00000000    0.00000000    0.00000000
    1    2.46955898   -7.34649951   -5.74464228     -3.25740510    2.90407860   -0.34553722      0.00000000    0.00000000    0.00000000
    8    4.94959394    3.04515938    3.61405486     51.27049391  -50.98769806 -124.36220838      0.00000000    0.00000000    0.00000000
    1    3.98833394    3.32073538    3.61643086     -0.44633588    2.89321214    8.53959022      0.00000000    0.00000000    0.00000000
    1    5.83246794    3.51472238    3.61089186     -4.49045131  -26.76450958   20.20879633      0.00000000    0.00000000    0.00000000
    8    2.77179745   -3.54929398    2.93367343   -756.46205112-1870.92951449  310.23260998      0.00000000    0.00000000    0.00000000
    1    3.63369245   -3.97232898    3.21321643      3.40797807    7.23758786    1.90810710      0.00000000    0.00000000    0.00000000
    1    1.83916845   -3.86480098    2.75867043      2.47624290    1.24676089    0.42045833      0.00000000    0.00000000    0.00000000
    8    7.45610928    7.92809301    5.91866234     28.80515288  -17.06506832   25.40559890      0.00000000    0.00000000    0.00000000
    1    7.29738628    8.91104501    6.01128934      1.76949436    1.93280051    9.01274389      0.00000000    0.00000000    0.00000000
    1    8.25405828    7.32540101    5.91641034      3.42159716   -1.24386894    1.96359111      0.00000000    0.00000000    0.00000000
    8    5.41826843    2.89401958    1.26070023    792.34219937   40.30313565 1028.70093072      0.00000000    0.00000000    0.00000000
    1    4.57844243    2.44496058    0.95573323     -2.76812046   28.38713250  -25.06673713      0.00000000    0.00000000    0.00000000
    1    5.65187243    3.61843758    1.90924823    -19.58259507  -30.89698938   -1.59773113      0.00000000    0.00000000    0.00000000
    8   -4.69399258    0.05516147    6.51514512    230.78675274-1204.63169318 -399.56581304      0.00000000    0.00000000    0.00000000
    1   -4.26280158   -0.75168753    6.11136912      2.28785983    2.97258284    0.48489081      0.00000000    0.00000000    0.00000000
    1   -5.24808158    0.24489847    7.32567012      2.13157165   18.58569963    1.69869136      0.00000000    0.00000000    0.00000000
    8    4.36174065    3.63335646    5.69725330    725.30128012 -963.55083211  -25.43383525      0.00000000    0.00000000    0.00000000
    1    5.32611665    3.80685146    5.89686730     22.08972157    0.24423057   -5.89400874      0.00000000    0.00000000    0.00000000
    1    3.67471665    2.96867046    5.99077530     37.92233529  -52.74556428   61.10554526      0.00000000    0.00000000    0.00000000
    8    2.67136648    5.75540677   -6.57374502   1116.69948327 -646.09757323 -779.70403662      0.00000000    0.00000000    0.00000000
    1    2.43583148    5.54469077   -5.62501502     13.93286370   -7.91705620   53.19912550      0.00000000    0.00000000    0.00000000
    1    2.20922848    5.70045677   -7.45883002     -4.51710452    1.58877989    3.06711339      0.00000000    0.00000000    0.00000000
    8   -2.07133213    6.03242627    8.23622165     11.32565925    2.59093142   13.90283826      0.00000000    0.00000000    0.00000000
    1   -2.92567413    5.51820227    8.31132265     -1.88922722   -1.42313207  -10.60373373      0.00000000    0.00000000    0.00000000
    1   -1.09768713    5.80782927    8.19698365     -7.07930606   -2.90456915   -4.44778907      0.00000000    0.00000000    0.00000000
    8    7.06414634    1.52814026    5.23634795   -410.65435566 1078.40990805 -796.82378493      0.00000000    0.00000000    0.00000000
    1    7.48565234    1.88777726    4.40390395    -12.80742004   -3.46050041    6.92970553      0.00000000    0.00000000    0.00000000
    1    7.08068434    0.66103726    5.73416895     46.61577759  -30.42586149   37.85925554      0.00000000    0.00000000    0.00000000
    8    5.92860182    1.03005482    8.17663843    199.30810161 -368.50862049 -733.07222206      0.00000000    0.00000000    0.00000000
    1    6.09670082    1.90667482    8.62746643     -3.69634216    5.59008250   26.14303768      0.00000000    0.00000000    0.00000000
    1    6.07437382    0.06642882    8.40056243      0.32264599    7.72103174    3.03239096      0.00000000    0.00000000    0.00000000
    8    0.84017448   -1.34651053    6.86553235   -148.14277159 -917.76193929  607.31912819      0.00000000    0.00000000    0.00000000
    1    1.36316248   -1.92440253    7.49202435     -1.56602523    3.92755949   -0.85625208      0.00000000    0.00000000    0.00000000
    1    0.05754148   -1.47124553    6.25570235      3.44584235   -7.81052620    0.88118466      0.00000000    0.00000000    0.00000000
    8    9.49569840   -6.92082859   -6.64855030      6.86276162    6.06465562   -4.38390436      0.00000000    0.00000000    0.00000000
    1   -8.52773860   -7.12177559   -6.72544830      0.02407110    0.19499072    1.44473510      0.00000000    0.00000000    0.00000000
    1    8.76491940   -6.65262159   -7.27623830     -0.95949746    1.85332959    1.15221790      0.00000000    0.00000000    0.00000000
    8   -8.41944447   -8.36914089    7.32120615     -2.21819061    6.08195119   -3.93483005      0.00000000    0.00000000    0.00000000
    1   -8.19169947   -9.31114889    7.56762215      0.28218977    2.48069145    0.44083281      0.00000000    0.00000000    0.00000000
    1   -8.04081847   -7.67383789    6.71033515      0.56010224    1.59038637   -0.94963766      0.00000000    0.00000000    0.00000000
    8   -4.70159208   -5.81626397    5.81222671      1.30594080    1.77217838   -1.27917501      0.00000000    0.00000000    0.00000000
    1   -4.80919508   -6.79569697    5.64164471     -0.59112602   -2.33838182    0.82156276      0.00000000    0.00000000    0.00000000
    1   -5.29416808   -5.01136897    5.78116471     -4.51425121   -1.41830306    1.19330308      0.00000000    0.00000000    0.00000000
    8    2.28203409    2.77100588    5.48786477   -120.25920864  -74.63737438  -11.88937234      0.00000000    0.00000000    0.00000000
    1    1.40982609    3.00470888    5.91751777    -12.99384459    6.85965643    5.57580149      0.00000000    0.00000000    0.00000000
    1    3.20571809    3.15404788    5.48052877    -25.59764625   44.01897950  -73.15774669      0.00000000    0.00000000    0.00000000
    8    2.33041942    0.39895616    0.38759410  -1003.67453654  225.00983173  340.62900452      0.00000000    0.00000000    0.00000000
    1    2.68507542    1.24257916   -0.01550090      6.17488346   -1.69616517   -3.31049158      0.00000000    0.00000000    0.00000000
    1    1.49230642    0.12370316    0.85851710     -2.71824751   10.59885702   11.29719137      0.00000000    0.00000000    0.00000000
    8    1.65574633   -6.81171709   -0.37807260      5.70308556    8.43876486   -5.28482372      0.00000000    0.00000000    0.00000000
    1    1.31701333   -7.74670109   -0.27303360     -1.88715351   -0.84436384    4.37949407      0.00000000    0.00000000    0.00000000
    1    1.75550533   -6.16335309   -1.13281660     -2.33567326    0.18142632   -3.56095964      0.00000000    0.00000000    0.00000000
    8    2.04930605    3.00333693   -5.77885130    561.25158011  170.31852187-1148.01839798      0.00000000    0.00000000    0.00000000
    1    2.08716305    2.52776593   -4.90000830    -21.44687174   16.65857099   34.64039234      0.00000000    0.00000000    0.00000000
    1    1.39092605    3.58842993   -6.25231630      7.65521414    3.90298133    5.55739487      0.00000000    0.00000000    0.00000000
    8    5.94998332    5.28936163    4.76382719     29.99685917   29.87015676  -24.21918135      0.00000000    0.00000000    0.00000000
    1    6.00148632    6.27864063    4.90036119      6.12363065   -1.19741194   12.38977578      0.00000000    0.00000000    0.00000000
    1    6.00270432    4.66736163    3.98260719     -0.84639466   13.94263469   16.04181923      0.00000000    0.00000000    0.00000000
    8    6.05007991    2.89330975   -0.77222061    512.27352966   93.46140685 -485.53587940      0.00000000    0.00000000    0.00000000
    1    5.05098791    2.85897575   -0.79678061    -26.17663732  -18.57096609   17.82184949      0.00000000    0.00000000    0.00000000
    1    6.79799991    2.37950575   -1.19244361     -9.18722662   -0.41212403   -0.57367657      0.00000000    0.00000000    0.00000000
    8   -3.86803976   -3.31397595   -5.45505420      2.20789755  -10.20809112    0.26121845      0.00000000    0.00000000    0.00000000
    1   -4.29775876   -2.64249495   -6.05872720      1.98170097    4.92159713    0.07256284      0.00000000    0.00000000    0.00000000
    1   -3.86422776   -3.49929495   -4.47239920     -0.00109246    2.83419739    0.64918656      0.00000000    0.00000000    0.00000000
    8    3.67035717   -8.48218503    0.81449677    -50.86961997  -38.88790562   -8.83505151      0.00000000    0.00000000    0.00000000
    1    3.70492817   -7.51043103    0.58111877     -0.48219323    1.90478807   -1.46042727      0.00000000    0.00000000    0.00000000
    1    2.95345017   -9.14489703    1.03088877     -2.52884638    0.62042214    9.97597018      0.00000000    0.00000000    0.00000000
    8    4.11840291    0.08640932   -0.35891239    942.46350226 1024.82311392-2012.73207882      0.00000000    0.00000000    0.00000000
    1    4.59189791    0.62000232    0.34183461     24.23686165  -46.70344681  -10.99411557      0.00000000    0.00000000    0.00000000
    1    3.49434791    0.28471632   -1.11468739      1.72676682   -8.34777675   -3.22667805      0.00000000    0.00000000    0.00000000
    8    3.34501566    7.38280257   -4.98161152    272.82625593  693.42648043  -84.78101988      0.00000000    0.00000000    0.00000000
    1    3.16528066    8.35697257   -5.11819052      9.50929575    0.99507468    2.11547476      0.00000000    0.00000000    0.00000000
    1    4.15623766    6.81171757   -4.85611652      9.00358412    7.49330740  -15.68852486      0.00000000    0.00000000    0.00000000
    8    7.43470821    7.97386310   -1.77321719     -4.02815061  -10.23861028    7.78564371      0.00000000    0.00000000    0.00000000
    1    7.55297521    8.80789610   -1.23435919      1.75792872    5.79152369   -6.44303222      0.00000000    0.00000000    0.00000000
    1    8.03737321    7.33435910   -2.25049719     -1.50957500    4.78249877   -0.77452851      0.00000000    0.00000000    0.00000000
    8   -3.09231156   -2.62460208    0.64124343    -16.71566450    5.70121029    6.76437344      0.00000000    0.00000000    0.00000000
    1   -2.23891256   -3.03013308    0.96869043      6.93200765   -0.51328497   -5.48427880      0.00000000    0.00000000    0.00000000
    1   -4.05812456   -2.67873208    0.89470243      0.67155879   -0.92344232    0.46606561      0.00000000    0.00000000    0.00000000
    8   -1.17949115    0.89898397    5.26489463    -87.22731995   14.19102957  -15.58341464      0.00000000    0.00000000    0.00000000
    1   -0.53828215    1.05892597    6.01538463      9.44171899   12.54550864    2.37421032      0.00000000    0.00000000    0.00000000
    1   -1.68310115    1.46859497    4.61536663      1.41139406    3.79077563   -0.51267297      0.00000000    0.00000000    0.00000000
    8   -1.17242596    4.99218043    1.56990107  -1562.87819377 -177.68691146 -912.46766973      0.00000000    0.00000000    0.00000000
    1   -1.62712296    5.18697843    0.70083707     -0.93752709    0.09390994   -0.67871996      0.00000000    0.00000000    0.00000000
    1   -0.73767296    4.19656743    1.99175007    -16.43811321    4.43017806    3.02371350      0.00000000    0.00000000    0.00000000
    8    6.08754980    2.73249443   -4.35720784    519.79668562 1222.06827680 -729.91871921      0.00000000    0.00000000    0.00000000
    1    5.76929880    1.78474443   -4.37849984    -24.11036687  -34.56905539   25.72543580      0.00000000    0.00000000    0.00000000
    1    5.65801880    3.63549843   -4.34984984     -6.70349262    0.43514621   -3.50297577      0.00000000    0.00000000    0.00000000
    8    4.04421592   -1.10960484    1.08290514   -685.35505603-1113.46483193-1187.16555308      0.00000000    0.00000000    0.00000000
    1    3.41855692   -1.83158984    1.37829814    -71.80022271   66.08097762  -24.62930157      0.00000000    0.00000000    0.00000000
    1    4.19324692   -0.14809084    1.31365614     18.72047695  -24.15668666   -1.90891119      0.00000000    0.00000000    0.00000000
    8    6.26945403    3.52520080   -8.60990354    671.57431108 1277.29583717  373.17140393      0.00000000    0.00000000    0.00000000
    1    5.45201103    2.95104680   -8.65572254      1.70531156  -47.31737213  -11.90861295      0.00000000    0.00000000    0.00000000
    1    6.46114403    4.49121680   -8.43659454     -2.41633533   -6.69547588    0.74982680      0.00000000    0.00000000    0.00000000
    8    1.02301952    6.73055027   -6.31679867  -1151.25565688  653.06392124  152.06459223      0.00000000    0.00000000    0.00000000
    1    1.90792952    7.17900127   -6.19113067     27.13946761  -13.59775432    4.02746490      0.00000000    0.00000000    0.00000000
    1    0.06397352    6.98326827   -6.18900767      3.27370890    1.85349712    0.50341414      0.00000000    0.00000000    0.00000000
    8    9.28824208    3.28746126   -2.97104390     -6.20070412    4.70157276    2.49095003      0.00000000    0.00000000    0.00000000
    1    9.15305508    2.38442126   -2.56335490      1.45891627   -2.91466651   -5.34083248      0.00000000    0.00000000    0.00000000
    1    9.47687008    4.20896926   -2.63161990      5.44520624   -3.13508742   -2.51046754      0.00000000    0.00000000    0.00000000
    8    0.99806479    0.35865688    2.47035051    213.39039634 -104.21981599  323.79415094      0.00000000    0.00000000    0.00000000
    1    0.06971379   -0.01288912    2.47961751     -5.23377561  -29.75577410   56.54685682      0.00000000    0.00000000    0.00000000
    1    1.92209579   -0.01189112    2.56431151      5.64641479    2.64470575    1.49494403      0.00000000    0.00000000    0.00000000
    8    8.18381734   -4.55261258    3.50580583   -535.96060864  255.27107890-1152.67481276      0.00000000    0.00000000    0.00000000
    1    8.64492534   -5.29460858    3.01919783     -4.00920833    1.40470445    5.62348657      0.00000000    0.00000000    0.00000000
    1    7.30319934   -4.08412358    3.43511683      1.79629866   -5.16464449    1.08230031      0.00000000    0.00000000    0.00000000
    8   -9.45543970    6.94029609   -6.57999267      6.03170264   -1.21454697    9.24857095      0.00000000    0.00000000    0.00000000
    1    9.38936330    7.01404809   -7.56510267     -1.38720139   -1.50304090    1.49179226      0.00000000    0.00000000    0.00000000
    1   -8.69396370    6.67217909   -5.98987967      4.80164101   -0.30681098    1.52618659      0.00000000    0.00000000    0.00000000
    8    2.61067751    5.55178979   -4.51967993   -268.51170657 -698.66607929  673.42335229      0.00000000    0.00000000    0.00000000
    1    3.50512651    5.90005179   -4.23925193    -11.78792736    6.46498111    3.31282250      0.00000000    0.00000000    0.00000000
    1    1.69130451    5.93121479   -4.62339693     -6.12870247   12.42346243    1.55796874      0.00000000    0.00000000    0.00000000
    8    6.03538358   -7.96092100   -0.99017936     35.23053218  -45.70865839  -77.42637358      0.00000000    0.00000000    0.00000000
    1    6.04378258   -7.02362000   -0.64180736     -6.24103317   -0.12104452   15.68352118      0.00000000    0.00000000    0.00000000
    1    5.57818458   -8.81560400   -0.74430336     -0.66088559    6.67672814    0.13766434      0.00000000    0.00000000    0.00000000
    8   -2.78542303    4.64651849    3.65999536     22.53783808   35.28720818 -177.07600760      0.00000000    0.00000000    0.00000000
    1   -1.83806403    4.73292349    3.35175536     -3.39941770    7.37052913   -3.37395086      0.00000000    0.00000000    0.00000000
    1   -3.64049403    4.30511649    3.26978436      6.34630778    4.24566084   -1.05211890      0.00000000    0.00000000    0.00000000
    8    0.03375791   -6.52106916    6.04496507  -1860.64167951  520.02367559  137.77754304      0.00000000    0.00000000    0.00000000
    1   -0.71937109   -5.93727116    5.74174307      0.86650214   -2.32295024   -2.20665057      0.00000000    0.00000000    0.00000000
    1    1.03198691   -6.46217916    6.05111007     11.02141819  -93.33470698  -88.39624154      0.00000000    0.00000000    0.00000000
    8    4.40072762   -6.61721648   -4.01430841     36.24945842   21.94568578   85.62503431      0.00000000    0.00000000    0.00000000
    1    5.04294462   -6.32738248   -4.72390041      5.75239425   -7.54149066    3.12733019      0.00000000    0.00000000    0.00000000
    1    3.66304962   -6.18816648   -3.49304841      0.08563352   -4.02968954   -1.49846217      0.00000000    0.00000000    0.00000000
    8    5.65081489   -0.15372592    1.28589508    207.54984136 1964.93414356 1344.33366961      0.00000000    0.00000000    0.00000000
    1    5.90475889    0.79801608    1.45813308     12.70653397    3.55343374    6.59071259      0.00000000    0.00000000    0.00000000
    1    5.83978489   -0.83126792    0.57512408     36.86638047  -16.23529769  -10.47945560      0.00000000    0.00000000    0.00000000
    8    0.86565537   -0.03009729   -2.18962900    -10.73188199    8.88502035    5.18012236      0.00000000    0.00000000    0.00000000
    1    1.31897137    0.76853071   -1.79382000      6.08969842   -2.92741927   -2.84459478      0.00000000    0.00000000    0.00000000
    1   -0.03946063   -0.23140229   -2.56407200     -3.90971376   -3.30847822   -4.20060576      0.00000000    0.00000000    0.00000000
    8   -1.47004785    7.83289733    2.85978559      2.74236007   -5.99641293   -3.93348099      0.00000000    0.00000000    0.00000000