 BEGIN_INFO
   #
   # This is a XCRYSDEN-Structure-File
   # aimed for Visualization of Fermi Surface
   #
   # Case: Tight-binding calculation
   #
   # Launch as: xcrysden --xsf HICOLM.XSF
   #
 END_INFO
 # estrutura final
CRYSTAL
PRIMVEC
      19.00001974       0.00000000       0.00000000
       0.00000000      19.00001974       0.00000000
       0.00000000       0.00000000      19.00001974
PRIMCOORD
  300    1
    8   -4.20230337    2.72298083   -8.57069090    165.48277980  126.23874584  -45.86722949      0.00000434    0.00000331   -0.00000120
    1   -4.77518596    3.53439067   -8.68640602    -37.22892984  -68.94382296   92.57214103     -0.00001549   -0.00002868    0.00003851
    1   -4.19582036    1.92751200   -7.96475727    -95.53940962   64.62124492   24.77709012     -0.00003975    0.00002688    0.00001031
    8   -3.94016609   -8.31132863    5.94128517  -7363.47009842 2641.6251833510598.67672077     -0.00019300    0.00006924    0.00027779
    1   -3.56216170   -9.18910655    5.64702487    115.05116805 -110.87945396 -102.07575870      0.00004787   -0.00004613   -0.00004247
    1   -3.57378271   -7.40575169    6.15497239    105.10579019  -31.71167468  -69.41187679      0.00004373   -0.00001319   -0.00002888
    8   -7.11358539   -8.37094370    1.86475094   -119.67156930    2.62972276   98.53913832     -0.00000314    0.00000007    0.00000258
    1   -7.38493867   -7.97958729    0.98544602    108.96885963  -46.64308613    1.73920508      0.00004534   -0.00001941    0.00000072
    1   -6.30940355   -8.84461719    2.22377031      8.79517029   34.01032419 -111.02386466      0.00000366    0.00001415   -0.00004619
    8    6.30389055   -5.42756464   -3.73278988    -34.92389345   89.34205724  284.62156943     -0.00000092    0.00000234    0.00000746
    1    7.09077037   -5.99458823   -3.48932863    -83.82335787  -54.76137257  -61.08857877     -0.00003487   -0.00002278   -0.00002542
    1    5.44134765   -5.56508978   -4.21969238     80.07111277  -96.74217603    7.30638748      0.00003331   -0.00004025    0.00000304
    8    6.99918027    1.48906655    5.51029072    -21.82306575 -155.58134369   62.89429876     -0.00000057   -0.00000408    0.00000165
    1    7.66972497    2.01091509    6.03755927    -45.86652566   61.70954598  -93.22631991     -0.00001908    0.00002567   -0.00003879
    1    6.43519969    1.65313072    4.70098388     68.29177792   94.47133303   30.07009467      0.00002841    0.00003930    0.00001251
    8   -9.16638352    5.89500412    2.44079554    -56.21542663 -241.34206394   82.94281710     -0.00000147   -0.00000633    0.00000217
    1   -9.44860382    5.30184951    1.68681475    -31.09258583  118.30711630  -15.69129292     -0.00001294    0.00004922   -0.00000653
    1   -9.24853061    6.86701213    2.66084276    -48.35505915  -29.84539578 -117.79679606     -0.00002012   -0.00001242   -0.00004901
    8   -6.07782031    8.00983932   -2.18454727    187.34879497  -29.20400932  -23.42186790      0.00000491   -0.00000077   -0.00000061
    1   -6.54008379    7.12369440   -2.15246624    -67.23395723   95.37684101   17.70860146     -0.00002797    0.00003968    0.00000737
    1   -6.34506359    8.96543531   -2.06051114    -97.01912437  -71.34691146    7.32286366     -0.00004036   -0.00002968    0.00000305
    8    3.06219318    9.46689484   -5.28193649    125.62804574   -2.12243751 -113.36787590      0.00000329   -0.00000006   -0.00000297
    1    2.54471664   -8.67981602   -5.34557255    -43.37898606  -78.51644426   80.33412823     -0.00001805   -0.00003267    0.00003342
    1    2.99677411    8.62413596   -4.74766593    -85.20607322   80.25595518   27.20620712     -0.00003545    0.00003339    0.00001132
    8   -9.13919449   -4.20160736   -7.18718147  50491.91844124 3184.1846342631781.80657936      0.00132340    0.00008346    0.00083301
    1    9.24399460   -3.47829361   -6.87684914   -107.10520595  -82.67123192  -68.36680782     -0.00004456   -0.00003439   -0.00002844
    1   -9.21777858   -5.01695021   -7.76077406    -89.76437121   94.91580367  -19.22822267     -0.00003735    0.00003949   -0.00000800
    8    5.96985320   -3.84114299    4.28358545      9.35200334 -161.40237526   41.71219133      0.00000025   -0.00000423    0.00000109
    1    5.03340023   -3.49052663    4.29326846     80.65626386   81.29731739  -31.82836473      0.00003356    0.00003382   -0.00001324
    1    6.87390414   -3.47205861    4.06809023    -89.97013518   79.66073988  -10.50230152     -0.00003743    0.00003314   -0.00000437
    8    4.39045756   -8.62092496   -8.09105541     21.54165423   75.69517309 -143.37884380      0.00000056    0.00000198   -0.00000376
    1    3.67230482   -9.31668068   -8.07887339     59.22108031    7.88098638  104.78094011      0.00002464    0.00000328    0.00004359
    1    5.06677326   -8.27382460   -7.44137273    -69.52675872  -92.63910862   44.58766867     -0.00002893   -0.00003854    0.00001855
    8   -9.13563849    2.24161933    2.13876422    163.10895411   -3.17249037   -1.02743139      0.00000428   -0.00000008   -0.00000003
    1    9.48942186    3.16864429    2.13801822    -82.28197993  -84.42434186    3.41821338     -0.00003423   -0.00003512    0.00000142
    1    9.49009786    1.31433237    2.14299823    -82.11395954   84.67771036    1.02862229     -0.00003416    0.00003523    0.00000043
    8    4.51210369   -7.79381910   -2.43878153  -2783.1172205615341.36625356 5265.93333043     -0.00007295    0.00040210    0.00013802
    1    5.45378667   -8.07105438   -2.62941873    -70.05573311   11.05265831 -108.74492065     -0.00002915    0.00000460   -0.00004524
    1    3.74007189   -7.45287174   -2.97515009    104.06233172  -26.01795639  -67.49085643      0.00004329   -0.00001082   -0.00002808
    8    0.95669199    5.27093248    6.72248798     -6.81477314  154.09003703  -69.88966114     -0.00000018    0.00000404   -0.00000183
    1    0.08178308    4.78963198    6.66907893     86.24435919  -64.25922832   53.90030728      0.00003588   -0.00002673    0.00002242
    1    1.86532794    5.07287227    7.09007737    -78.90557477  -89.83447706   15.68298372     -0.00003283   -0.00003737    0.00000652
    8    5.67041389    9.49330686    3.52011966     55.51405952 -163.47325085    7.75699711      0.00000146   -0.00000428    0.00000020
    1    4.69884688   -9.43214980    3.74476589     49.04873498  108.59888543  -25.43190161      0.00002041    0.00004518   -0.00001058
    1    6.40138465   -8.87219722    3.26903940   -106.68772883   55.28225464   18.11089838     -0.00004439    0.00002300    0.00000753
    8    1.08181112    9.46431683    0.96308600    147.91129698  -50.96718923   64.98143225      0.00000388   -0.00000134    0.00000170
    1    0.98741303   -8.54024187    0.95230699    -95.81764467  -55.53689079  -44.98839410     -0.00003986   -0.00002311   -0.00001872
    1    0.52116054    8.68554502    0.68174271    -52.25648010  106.59815666  -20.13367798     -0.00002174    0.00004435   -0.00000838
    8   -7.94437425    2.64777275   -3.64192378  ******************************************      0.04750326   -0.01011475   -0.00597874
    1   -8.26245658    3.37439551   -3.03298015     16.45865168   28.42868014   13.21174628      0.00000685    0.00001183    0.00000550
    1   -7.07358935    2.38980048   -4.06043722     52.82614945  121.32571602   16.53681918      0.00002198    0.00005048    0.00000688
    8   -1.48608954   -5.39560861   -6.36951762     -3.46459676   64.75253069  148.82416123     -0.00000009    0.00000170    0.00000390
    1   -0.95229299   -6.23886448   -6.43237368    -51.64554077   29.81680047 -103.40823537     -0.00002149    0.00001240   -0.00004302
    1   -2.05601614   -4.85714005   -6.99016526     57.90512227  -94.93838854  -54.59521935      0.00002409   -0.00003950   -0.00002271
    8    6.44228669   -4.55964074    7.93541324    -68.86937873   59.19284687 -133.87850671     -0.00000181    0.00000155   -0.00000351
    1    6.75284702   -3.82793898    8.54215387     19.01099939 -108.36385725   38.70738270      0.00000791   -0.00004508    0.00001610
    1    6.45385670   -5.55945578    7.94974126     48.60852571   49.13728773   95.09155602      0.00002022    0.00002044    0.00003956
    8   -8.47039880   -9.31074967   -3.66197680    606.86585813 3837.88190112-2391.83881659      0.00001591    0.00010059   -0.00006269
    1   -7.89712120   -9.18091954   -4.47096764   -107.81849988  -40.39340838  -22.35318082     -0.00004486   -0.00001681   -0.00000930
    1   -9.39972277    9.36617473   -3.48327062     42.79465068   -3.58050252 -113.72563839      0.00001780   -0.00000149   -0.00004731
    8   -6.10405634   -3.13967826   -7.92002623   -952.79730547 3680.83598440 -444.23312848     -0.00002497    0.00009648   -0.00001164
    1   -6.63470989   -3.98364014   -7.84189715    152.20811059 -112.83637130  -23.13136670      0.00006332   -0.00004694   -0.00000962
    1   -5.13604334   -2.90401902   -8.00595332     10.81129482 -107.30067168   -4.66437387      0.00000450   -0.00004464   -0.00000194
    8    1.96619704   -6.24554349   -9.42452279  ******************************************     -0.08727003    0.05547630   -0.07524822
    1    1.87744895   -7.24061952   -9.38076675    -59.18706541   67.04932734   32.10906281     -0.00002462    0.00002790    0.00001336
    1    1.33840339   -5.46913568   -9.47961385    -74.10741856 -102.21258141    9.96939881     -0.00003083   -0.00004252    0.00000415
    8   -7.74548905    7.53942083    2.88738700    281.15656020  128.03850012   91.70567141      0.00000737    0.00000336    0.00000240
    1   -7.76955507    7.97648829    1.98829807   -106.94808268  -16.33128776   46.22116104     -0.00004449   -0.00000679    0.00001923
    1   -8.42215375    7.24164852    3.56075570    -37.87084710   43.66341062  -87.98351511     -0.00001576    0.00001817   -0.00003660
    8   -9.13874149    1.83592291   -7.20680649    163.55159037  -13.56254519  -29.86005078      0.00000429   -0.00000036   -0.00000078
    1    9.45394082    0.93918698   -7.03385931    -77.57245866   91.98067250    6.08259724     -0.00003227    0.00003827    0.00000253
    1   -9.47134284    2.77681488   -7.27057455    -86.54649456  -79.69742048   24.20617574     -0.00003601   -0.00003316    0.00001007
    8    7.22678951    0.65116868    0.08522709     54.57004352 -157.60490509  -12.78836953      0.00000143   -0.00000413   -0.00000034
    1    6.31922956    0.78393881   -0.31311333     46.25279696   98.66711171   48.10333325      0.00001924    0.00004105    0.00002001
    1    7.89190020    1.22252827    0.56600359   -100.02582660   60.20487266  -35.17941275     -0.00004161    0.00002505   -0.00001464
    8    1.71847779   -1.53402959   -7.51419381    -60.11849224  157.23605432   17.32354509     -0.00000158    0.00000412    0.00000045
    1    1.01112305   -2.16625525   -7.83027913    107.56054650  -51.61577101   17.52286872      0.00004475   -0.00002147    0.00000729
    1    2.68835379   -1.59883066   -7.27943856    -47.99397794 -105.19795758  -34.31700956     -0.00001997   -0.00004377   -0.00001428
    8    2.66771977   -6.69134295   -8.81976716  ******************************************      0.08728221   -0.05547260    0.07524439
    1    3.29281742   -6.68377094   -8.03927735     -8.58621700  105.18411245  -66.46963789     -0.00000357    0.00004376   -0.00002765
    1    2.35934845   -6.02722126    9.49920987   -333.97998669 -202.14581489  163.90845246     -0.00013895   -0.00008410    0.00006819
    8    2.66002176   -5.17408538   -4.36833554    -70.75369182  145.08519160  -13.08557890     -0.00000185    0.00000380   -0.00000034
    1    1.99993508   -5.92422115   -4.40770358    111.02894365  -33.91883948   12.12090689      0.00004619   -0.00001411    0.00000504
    1    3.65285479   -5.09349129   -4.28025945    -41.47094804 -108.40894053    2.63387308     -0.00001725   -0.00004510    0.00000110
    8   -6.21031145    2.62955773    3.43658657     16.29474506  -82.10965253 -238.55734167      0.00000043   -0.00000215   -0.00000625
    1   -5.67715590    3.42351456    3.72872487   -101.44636509  -26.12282280   72.46514990     -0.00004221   -0.00001087    0.00003015
    1   -7.02838930    2.15399024    3.75993491     29.02665024   95.96024185   65.26239533      0.00001208    0.00003992    0.00002715
    8   -4.55288973   -6.45247070   -5.88010911     51.73988506 -209.01194501  -64.20996971      0.00000136   -0.00000548   -0.00000168
    1   -5.51415073   -6.17689442   -5.87773311     73.82843335   96.88948202    5.18149139      0.00003072    0.00004031    0.00000216
    1   -3.67001481   -5.98290722   -5.88327211    -96.53860042   51.81096702   10.31503907     -0.00004016    0.00002156    0.00000429
    8   -6.62601688    6.19566644   -6.62215288  ****************************12773.89303162     -0.00055806   -0.00132078    0.00033481
    1   -5.76412099    5.77263100   -6.34260959    -90.95463071  -63.94949316  -10.06552010     -0.00003784   -0.00002661   -0.00000419
    1   -7.55864685    5.88015911   -6.79715606     79.59334297  -83.51160380   32.97532661      0.00003311   -0.00003474    0.00001372
    8   -2.04531912   -1.57109763   -3.58260972   -113.88543958  -93.47512233    5.68447794     -0.00000298   -0.00000245    0.00000015
    1   -2.20404229   -0.58814461   -3.48998263    118.64843204  -30.24710652   18.23656872      0.00004936   -0.00001258    0.00000759
    1   -1.24736930   -2.17379026   -3.58486172     29.88629449  112.84994104   15.55058799      0.00001243    0.00004695    0.00000647
    8   -4.16526933   -6.62790789   -8.34874567   5877.28941046 1980.76571897 6857.56650274      0.00015404    0.00005192    0.00017974
    1   -5.00509620   -7.07696735   -8.65371299    -31.72928270  133.86546861   11.82534045     -0.00001320    0.00005569    0.00000492
    1   -3.93166508   -5.90348913   -7.70019700   -132.20680744  -42.64340887  -11.76795043     -0.00005500   -0.00001774   -0.00000490
    8    4.77645596   -9.28453565   -2.93163805   2777.42020074**************-5177.28114859      0.00007280   -0.00039888   -0.00013570
    1    5.20764741    8.90863426   -3.33541447    -60.61968847  -23.59453959  103.04133205     -0.00002522   -0.00000982    0.00004287
    1    4.22236639   -9.09479845   -2.12111220     34.36527324  -83.97058433   -9.88509760      0.00001430   -0.00003494   -0.00000411
    8   -5.25644046   -5.70499993   -3.77384392  20068.48668399**************-6684.02773023      0.00052600   -0.00073116   -0.00017519
    1   -4.29206346   -5.53150475   -3.57422971    -18.89183354  -81.45941255   55.46593657     -0.00000786   -0.00003389    0.00002308
    1   -5.94346517   -6.36968662   -3.48032162    135.04751937  -61.72767632  148.43491680      0.00005619   -0.00002568    0.00006176
    8   -7.01120928   -3.63720878    2.99270411  33791.04505912**************-5644.76523740      0.00088567   -0.00052093   -0.00014795
    1   -7.24674453   -3.84792500    3.94143509    -55.09678952  -38.05203007  -39.15965798     -0.00002292   -0.00001583   -0.00001629
    1   -7.47334776   -3.69215884    2.10761819    -78.78710622  -32.28585794  104.67394562     -0.00003278   -0.00001343    0.00004355
    8    7.42805772   -3.46759260   -1.26447031    -19.18003712  165.12657377    0.94056802     -0.00000050    0.00000433    0.00000002
    1    6.57371483   -3.98181714   -1.18936924     93.47779541  -71.11136140   -6.67007063      0.00003889   -0.00002959   -0.00000278
    1    8.40170373   -3.69218984   -1.30370835    -76.92745051  -95.44604627    8.39906863     -0.00003200   -0.00003971    0.00000349
    8   -2.32673542   -8.25226557   -4.05552521  ******************************************     -0.00561397    0.01431247   -0.01063526
    1   -1.90522898   -7.89262820   -4.88797008     24.92026974 -120.01787287   36.37691204      0.00001037   -0.00004993    0.00001513
    1   -2.31019740   -9.11936947   -3.55770370    731.02449140  -32.96462571  204.83078240      0.00030414   -0.00001371    0.00008522
    8   -3.58177672   -8.44849978   -1.28270033     33.17053829 -338.15619714 -715.55864292      0.00000087   -0.00000886   -0.00001875
    1   -3.41367755   -7.57187887   -0.83187186     38.28081273  -83.13841887   92.71086319      0.00001593   -0.00003459    0.00003857
    1   -3.43600457   -9.41212678   -1.05877610     37.80936296   78.87282114   85.77977019      0.00001573    0.00003281    0.00003569
    8   -8.64756498    8.23833456   -2.69091480   -445.42772135-3655.89885313 2543.87162657     -0.00001167   -0.00009582    0.00006668
    1   -8.12457644    7.66044196   -2.06442214    -90.94753475  -50.32477547  -57.29193609     -0.00003784   -0.00002094   -0.00002384
    1   -9.43019880    8.11359943   -3.30074543     38.42827993 -111.42805481   59.34886628      0.00001599   -0.00004636    0.00002469
    8   -0.00464200    2.57887168    2.85166396    -55.19888927  -13.79657104  158.70473204     -0.00000145   -0.00000036    0.00000416
    1    0.97192201    2.37792447    2.77476588    -51.28430106   28.91929347 -104.63432936     -0.00002134    0.00001203   -0.00004353
    1   -0.73542176    2.84707896    2.22397531    106.38915165  -14.87237137  -54.22537726      0.00004426   -0.00000619   -0.00002256
    8    1.08067312    1.13055817   -2.17860526   -136.25111127   54.96741581   81.05243436     -0.00000357    0.00000144    0.00000212
    1    1.30841836    0.18854920   -1.93218901     75.30228386   47.40530919  -80.28618816      0.00003133    0.00001972   -0.00003340
    1    1.45929952    1.82586190   -2.78947690     60.82019355 -103.01361034   -0.81454232      0.00002530   -0.00004286   -0.00000034
    8    4.79834298    3.68365383   -3.68771583    159.20536891   39.60089181   42.94301874      0.00000417    0.00000104    0.00000113
    1    4.69073987    2.70421981   -3.85829801   -101.04526772   60.90184055  -15.02775538     -0.00004204    0.00002534   -0.00000625
    1    4.20576637    4.48854966   -3.71877786    -57.68942631 -101.07614059  -28.74401258     -0.00002400   -0.00004205   -0.00001196
    8   -7.21128949   -6.72454499   -4.01145317   -172.85979720 -270.54304633 -121.41570288     -0.00000453   -0.00000709   -0.00000318
    1   -8.08349840   -6.49084174   -3.58179972     77.19502988   83.17553651   32.65609366      0.00003212    0.00003460    0.00001359
    1   -6.28760453   -6.34150259   -4.01878918   -107.60697637   92.66947261  -36.36582695     -0.00004477    0.00003855   -0.00001513
    8   -7.05957733   -9.12702248   -9.14869350  -6737.36605800 1745.86117841 1884.77328411     -0.00017659    0.00004576    0.00004940
    1   -6.70492097   -8.28339861    9.44823082   -105.59948001   13.77333175   49.60750249     -0.00004393    0.00000573    0.00002064
    1   -7.89769120   -9.40227577   -8.67777002     -2.32622402  118.17938697  -27.28701276     -0.00000097    0.00004917   -0.00001135
    8   -7.84455315    2.68786079    9.12219448     55.60275179   75.49670205  140.07827509      0.00000146    0.00000198    0.00000367
    1   -8.18328650    1.75287582    9.22723359     -7.97967696   38.96205868 -109.68550897     -0.00000332    0.00001621   -0.00004563
    1   -7.74479405    3.33622547    8.36744969    -48.29647381 -106.36783658  -34.19583244     -0.00002009   -0.00004425   -0.00001423
    8   -7.52609982   -6.51912377    3.87353502   7966.19931237 2294.08790118**************      0.00020880    0.00006013   -0.00041384
    1   -7.48824278   -6.99469527    4.75237894   -154.47835222   98.19512669   38.92787157     -0.00006427    0.00004085    0.00001620
    1   -8.18448050   -5.93403016    3.40006953    -28.48193002  -31.98370149  114.45435138     -0.00001185   -0.00001331    0.00004762
    8   -3.55164469   -4.21212238   -4.73495892     22.33359523  -49.36888221  121.09154924      0.00000059   -0.00000129    0.00000317
    1   -3.50014164   -3.22284235   -4.59842478     14.43460866  -30.95989954 -105.71122103      0.00000601   -0.00001288   -0.00004398
    1   -3.49892363   -4.83412302   -5.51617973     11.22439334  131.59989563  -14.45108588      0.00000467    0.00005475   -0.00000601
    8   -3.48565862   -6.61332487    8.76166010   1259.82104633  347.11974492-1011.94039482      0.00003302    0.00000910   -0.00002652
    1   -4.48475166   -6.64765891    8.73710008     26.53154616 -106.62563911  -40.81458914      0.00001104   -0.00004436   -0.00001698
    1   -2.73773784   -7.12712940    8.34143667   -116.21304341  -37.83314081  -32.05455323     -0.00004835   -0.00001574   -0.00001334
    8    5.63185085    6.18654643    4.04494120     95.93658353 -115.23726352  -83.81438725      0.00000251   -0.00000302   -0.00000220
    1    5.20213140    6.85802812    3.44126758    -26.78102857   19.52873614  114.67554864     -0.00001114    0.00000812    0.00004771
    1    5.63566285    6.00122723    5.02759722    -67.44007255   95.63461529  -30.64170045     -0.00002806    0.00003979   -0.00001275
    8   -5.82700905    1.01992306   -8.68509202     20.67445761  -90.06944646    2.71278677      0.00000054   -0.00000236    0.00000007
    1   -5.79243802    1.99167807   -8.91847027    -40.96598762   19.91377445   -2.09510997     -0.00001704    0.00000829   -0.00000087
    1   -6.54391680    0.35721037   -8.46869980    -42.48065223   22.14777109    3.03954156     -0.00001767    0.00000921    0.00000126
    8   -5.47330069    9.45589382    9.38456075   1919.0346972226940.26738537**************      0.00005030    0.00070611   -0.00104242
    1   -4.99980519   -9.01053236   -8.91471126      9.57048574   -1.00637157  -50.87722238      0.00000398   -0.00000042   -0.00002117
    1   -6.09735633   -9.34581871    8.62878496    -11.82557978   27.03097763   12.66205485     -0.00000492    0.00001125    0.00000527
    8   -6.17469341   -2.16617925    4.52488970    591.56056924 1529.73955011 -220.51422511      0.00001550    0.00004009   -0.00000578
    1   -6.35442860   -1.19200824    4.38831056     43.15840255   23.79970654    0.47705804      0.00001796    0.00000990    0.00000020
    1   -5.36347057   -2.73726484    4.65038483     42.29407191   39.23603233  -19.24069880      0.00001760    0.00001632   -0.00000800
    8   -2.06509015   -1.52563958    7.72640103    -85.62894311  -29.24484702   -3.18808900     -0.00000224   -0.00000077   -0.00000008
    1   -1.94682302   -0.69160572    8.26525959     43.75617382   14.14790232   -0.29564500      0.00001820    0.00000589   -0.00000012
    1   -1.46242452   -2.16514425    7.24912053     40.45316206   16.57092918    4.15772667      0.00001683    0.00000689    0.00000173
    8    6.40861466    6.87511914   -8.85910420     -9.76742485   61.24812609  -63.29004702     -0.00000026    0.00000161   -0.00000166
    1    7.26201454    6.46958772   -8.53165686     -4.51310437  -28.68075787   27.55551206     -0.00000188   -0.00001193    0.00001146
    1    5.44280065    6.82098909   -8.60564494     -0.95366322  -29.25013119   34.90221897     -0.00000040   -0.00001217    0.00001452
    8    8.32476165   -8.60169094   -4.23433240    -95.92263827  -71.47711596  -30.63027710     -0.00000251   -0.00000187   -0.00000080
    1    8.96597131   -8.44174877   -3.48384162     16.85038501   55.74746306    4.96737481      0.00000701    0.00002319    0.00000207
    1    7.82115113   -8.03207934   -4.88386107     10.12276143   43.25565311    8.78304611      0.00000421    0.00001800    0.00000365
    8    8.58781592   -4.46374364   -7.79498710  ******************************************     -0.00160089   -0.00032828   -0.00076324
    1    8.13311845   -4.26894543   -8.66405200     -0.24785551  -35.55402795  -24.77250201     -0.00000010   -0.00001479   -0.00001031
    1    9.02256937   -5.25935746   -7.37313766    -27.71302640  -26.72300232    0.44246531     -0.00001153   -0.00001112    0.00000018
    8   -3.46714560   -6.91114718    5.22260443   3474.9876521210008.99590334-5072.27737253      0.00009108    0.00026234   -0.00013295
    1   -3.78539693   -7.85889816    5.20131240    -79.03196488  -74.83219849   72.44650672     -0.00003288   -0.00003113    0.00003014
    1   -3.89667705   -6.00814224    5.22996243    -48.85083895   -5.06016576   -6.38336360     -0.00002032   -0.00000211   -0.00000266
    8   -5.33193354    8.56381790   -8.44775178  -3193.91257018**************36716.01901268     -0.00008371   -0.00081020    0.00096233
    1   -5.95759319    7.84183215   -8.15235847    -49.53023280   77.90909057   38.08665836     -0.00002061    0.00003241    0.00001585
    1   -5.18290238   -9.47468684   -8.21700054    -33.48452364  -55.61010835   46.83629856     -0.00001393   -0.00002314    0.00001949
    8   -3.34755948   -6.20387645    0.81914585  38203.8250372575387.1405641323785.86831265      0.00100133    0.00197591    0.00062343
    1   -4.16500333   -6.77803104    0.77332680     31.26367063 -103.16037841  -45.54265873      0.00001301   -0.00004292   -0.00001895
    1   -3.15586928   -5.23785944    0.99245503    -40.11336011   11.41922226    7.28014801     -0.00001669    0.00000475    0.00000303
    8   -8.29110661   -2.87803199    3.15914728  **************19942.61144459 4315.78317951     -0.00088642    0.00052270    0.00011312
    1   -7.40619569   -2.42958052    3.28481541     23.35310783    9.41255923   12.96602016      0.00000972    0.00000392    0.00000539
    1   -9.25015361   -2.62531373    3.28693841      3.13388398   43.40913382   13.35758240      0.00000130    0.00001806    0.00000556
    8   -0.21145522   -6.21278945    6.52885078     -4.27210661    0.46980762  -82.29087457     -0.00000011    0.00000001   -0.00000216
    1   -0.34664236   -7.11583039    6.93654021      4.32447161    4.88297622   40.19935307      0.00000180    0.00000203    0.00001672
    1   -0.02282702   -5.29128050    6.86827514      1.72075605   -4.70987706   41.58835354      0.00000072   -0.00000196    0.00001730
    8   -8.51489685   -9.13533649   -7.04815032    352.06766638  -67.29297415  448.58152624      0.00000923   -0.00000176    0.00001176
    1   -9.44324881    9.49313686   -7.03888331     -2.20560650  -74.71657309   64.30315202     -0.00000092   -0.00003109    0.00002675
    1   -7.59086489    9.49413486   -6.95418922      1.42885554  -40.58283994    6.32641872      0.00000059   -0.00001688    0.00000263
    8   -1.24235529    4.91338510   -5.83750106  -8116.40956548 3721.00241388**************     -0.00021273    0.00009753   -0.00044916
    1   -0.78124681    4.17138833   -6.32410957    -30.44686994  -11.54780971  -22.86778335     -0.00001267   -0.00000480   -0.00000951
    1   -2.12297421    5.38187459   -5.90819014    -18.13567738  -22.84461920  -27.59213845     -0.00000755   -0.00000950   -0.00001148
    8    0.04441005   -2.55964666    2.91959603    -72.15105014   23.00104106   45.43684826     -0.00000189    0.00000060    0.00000119
    1   -0.11078712   -2.48589458    1.93448501     37.99142119  -11.92449219  -19.13907249      0.00001581   -0.00000496   -0.00000796
    1    0.80588684   -2.82776394    3.50970965     33.67475916  -11.26865437  -26.46643446      0.00001401   -0.00000469   -0.00001101
    8   -6.87128314   -3.89827705    4.93359513   -501.89927551-1735.69811879 1451.79535871     -0.00001315   -0.00004549    0.00003805
    1   -5.97683321   -3.55001469    5.21402342    -26.13886932   46.16909262   11.55408868     -0.00001087    0.00001921    0.00000481
    1   -7.79065709   -3.51885166    4.82987802     -7.82657801   58.62629924   19.01701096     -0.00000326    0.00002439    0.00000791
    8   -3.46635960    1.54136660    8.51380384     91.66855228  -63.37428198 -155.27805935      0.00000240   -0.00000166   -0.00000407
    1   -3.45796059    2.47866858    8.86217621    -33.73202017    0.73949333   49.93597064     -0.00001403    0.00000031    0.00002078
    1   -3.92355908    0.68668271    8.75968010    -27.65281389   14.40642780   36.98392997     -0.00001150    0.00000599    0.00001539
    8    6.71334397   -4.85542304   -5.83049206     18.02092655   80.29338483 -138.30117945      0.00000047    0.00000210   -0.00000362
    1    7.66070396   -4.76901795   -6.13873238      1.51200630   -7.72510504  -46.89855541      0.00000063   -0.00000321   -0.00001951
    1    5.85827209   -5.19682540   -6.22070346     13.94651880  -10.12875224  -42.57044345      0.00000580   -0.00000421   -0.00001771
    8   -9.02503138    2.87758699   -3.50499564  ******************************************     -0.04757619    0.01011728    0.00603063
    1    9.22185858    3.46138560   -3.80821796     20.86732242   26.70614968  -22.60158525      0.00000868    0.00001111   -0.00000940
    1   -8.02680134    2.93647705   -3.49885063    281.66525084 -900.51763372 -523.06739906      0.00011718   -0.00037465   -0.00021762
    8   -5.10113630    2.88172899    5.48129869     59.82038765  -63.06802250  116.52511714      0.00000157   -0.00000165    0.00000305
    1   -4.45891863    3.17156329    4.77170596     -3.54476315   36.01380749   -5.25009235     -0.00000147    0.00001498   -0.00000218
    1   -5.83881507    3.31077944    6.00255924     -1.24521253   39.19705605  -14.15943459     -0.00000052    0.00001631   -0.00000589
    8   -3.72798087    9.06929942   -8.42724975  ******************************************     -0.01494284    0.00752166    0.00831927
    1   -3.47403661   -8.97897733   -8.25501158     33.46208067   -1.58677765  -34.23622804      0.00001392   -0.00000066   -0.00001424
    1   -3.53901068    8.39175672   -9.13802149    110.73482206   79.52763893   22.83016657      0.00004607    0.00003309    0.00000950
    8   -8.63383497    9.46946784    7.31010759     47.59785409  -64.56235655    1.93420154      0.00000125   -0.00000169    0.00000005
    1   -8.18051850   -8.73192307    7.70591701    -25.99128299   28.80382061   -3.67340985     -0.00001081    0.00001198   -0.00000153
    1    9.46106783    9.26816263    6.93566421    -24.59388700   34.37315022    0.22770459     -0.00001023    0.00001430    0.00000009
    8    8.02983234   -1.66680073   -6.64001090     55.05488043  -66.10864008   13.65323943      0.00000144   -0.00000173    0.00000036