 BEGIN_INFO
   #
   # This is a XCRYSDEN-Structure-File
   # aimed for Visualization of Fermi Surface
   #
   # Case: Tight-binding calculation
   #
   # Launch as: xcrysden --xsf HICOLM.XSF
   #
 END_INFO
 # estrutura final
CRYSTAL
PRIMVEC
      19.00002042       0.00000000       0.00000000
       0.00000000      19.00002042       0.00000000
       0.00000000       0.00000000      19.00002042
PRIMCOORD
  300    1
    8   -4.20230352    2.72298093   -8.57069121    104.36760444  127.97708840    6.87275479      0.00000273    0.00000335    0.00000018
    1   -4.77518613    3.53439080   -8.68640633    -32.02305060    0.61955026   34.56993923     -0.00001332    0.00000026    0.00001438
    1   -4.19582051    1.92751207   -7.96475756    -39.73109577   -6.94207306   30.10641368     -0.00001653   -0.00000289    0.00001252
    8   -3.94016623   -8.31132893    5.94128538  -7283.41040264 2644.6977099810590.12041696     -0.00019086    0.00006930    0.00027751
    1   -3.56216183   -9.18910687    5.64702507     75.55621729 -190.59977566 -120.03447022      0.00003143   -0.00007928   -0.00004993
    1   -3.57378284   -7.40575196    6.15497261     65.03015162   46.08053013  -43.92724366      0.00002705    0.00001917   -0.00001827
    8   -7.11358564   -8.37094400    1.86475100    -62.34398758   -6.72494914   41.93716069     -0.00000163   -0.00000018    0.00000110
    1   -7.38493894   -7.97958757    0.98544606     33.18756013   -4.30905303  -24.53551310      0.00001380   -0.00000179   -0.00001021
    1   -6.30940378   -8.84461750    2.22377039     27.32455080    0.61192570  -28.64569956      0.00001137    0.00000025   -0.00001192
    8    6.30389077   -5.42756483   -3.73279001    -43.39272176   13.43823645  258.39265840     -0.00000114    0.00000035    0.00000677
    1    7.09077062   -5.99458844   -3.48932875     -7.37598429  -35.65256416  -16.00186319     -0.00000307   -0.00001483   -0.00000666
    1    5.44134785   -5.56508998   -4.21969253     12.60178585  -39.90341048  -11.62536225      0.00000524   -0.00001660   -0.00000484
    8    6.99918052    1.48906660    5.51029092    -10.24507597  -81.76894060   32.40989206     -0.00000027   -0.00000214    0.00000085
    1    7.66972524    2.01091516    6.03755949      2.44997768   40.46958831  -19.41421288      0.00000102    0.00001683   -0.00000808
    1    6.43519992    1.65313078    4.70098405      8.36511874   41.90788740  -13.26584956      0.00000348    0.00001743   -0.00000552
    8   -9.16638385    5.89500433    2.44079562   -106.25284154 -213.04157379   22.47011810     -0.00000278   -0.00000558    0.00000059
    1   -9.44860415    5.30184970    1.68681481    -20.30518780   29.32968122  -29.78457779     -0.00000845    0.00001220   -0.00001239
    1   -9.24853094    6.86701238    2.66084286    -20.47206333   18.11632115  -47.29138134     -0.00000852    0.00000754   -0.00001967
    8   -6.07782053    8.00983961   -2.18454735    110.59210895  -21.63520880   -6.31723511      0.00000290   -0.00000057   -0.00000017
    1   -6.54008403    7.12369466   -2.15246631    -36.45574786   10.79217856    5.33499099     -0.00001516    0.00000449    0.00000222
    1   -6.34506382    8.96543563   -2.06051121    -49.37217481    5.65346907    2.87209818     -0.00002054    0.00000235    0.00000119
    8    3.06219329    9.46689517   -5.28193668     62.91851427   -0.66484672  -62.80333682      0.00000165   -0.00000002   -0.00000165
    1    2.54471673   -8.67981633   -5.34557274    -32.02586576   -4.91216265   28.70464132     -0.00001332   -0.00000204    0.00001194
    1    2.99677422    8.62413627   -4.74766610    -34.12133005    5.21584156   28.02971407     -0.00001419    0.00000217    0.00001166
    8   -9.13919482   -4.20160752   -7.18718172  50417.21537824 3174.1583253031753.55972580      0.00132115    0.00008318    0.00083208
    1    9.24399493   -3.47829374   -6.87684939    -93.32723278  -10.23860028  -15.48973562     -0.00003882   -0.00000426   -0.00000644
    1   -9.21777891   -5.01695039   -7.76077434    -28.51954011   33.31450844  -44.58324090     -0.00001186    0.00001386   -0.00001854
    8    5.96985342   -3.84114313    4.28358560      5.95661301  -84.06188823   19.63254343      0.00000016   -0.00000220    0.00000051
    1    5.03340041   -3.49052675    4.29326861      1.69328983   41.80323562  -10.92431344      0.00000070    0.00001739   -0.00000454
    1    6.87390439   -3.47205873    4.06809037     -7.65445151   41.77739854   -9.24608579     -0.00000318    0.00001738   -0.00000385
    8    4.39045772   -8.62092526   -8.09105569     17.77909120   37.51422215  -71.80044879      0.00000047    0.00000098   -0.00000188
    1    3.67230495   -9.31668101   -8.07887368      0.38991736  -19.17690471   41.16748810      0.00000016   -0.00000798    0.00001712
    1    5.06677344   -8.27382489   -7.44137300     -6.10056402  -28.41215140   36.83536312     -0.00000254   -0.00001182    0.00001532
    8   -9.13563882    2.24161941    2.13876430     82.41100307   -3.25398486   -0.58038139      0.00000216   -0.00000009   -0.00000002
    1    9.48942220    3.16864441    2.13801830    -42.01210678   -3.10800831    2.95883895     -0.00001747   -0.00000129    0.00000123
    1    9.49009820    1.31433241    2.14299830    -41.61976936    3.37956428    1.15020975     -0.00001731    0.00000141    0.00000048
    8    4.51210385   -7.79381938   -2.43878162  -2987.4429373516600.43803759 5602.14348117     -0.00007828    0.00043500    0.00014680
    1    5.45378686   -8.07105467   -2.62941883     -3.72000687  -19.29495283  -54.47895736     -0.00000155   -0.00000803   -0.00002266
    1    3.74007202   -7.45287201   -2.97515020     19.81019930   -2.31354510  -43.54068832      0.00000824   -0.00000096   -0.00001811
    8    0.95669203    5.27093266    6.72248822     -3.14775543   81.01172538  -36.15424592     -0.00000008    0.00000212   -0.00000095
    1    0.08178309    4.78963215    6.66907917      6.24734815  -40.13128815   18.57968863      0.00000260   -0.00001669    0.00000773
    1    1.86532800    5.07287245    7.09007762     -2.59736835  -40.90109642   17.26993023     -0.00000108   -0.00001701    0.00000718
    8    5.67041409    9.49330720    3.52011978     29.71199544  -87.30182109    4.93245591      0.00000078   -0.00000229    0.00000013
    1    4.69884705   -9.43215014    3.74476602    -12.65660494   45.98450918   -3.16270814     -0.00000526    0.00001913   -0.00000132
    1    6.40138488   -8.87219753    3.26903951    -19.21381678   41.76968372   -1.35188914     -0.00000799    0.00001737   -0.00000056
    8    1.08181116    9.46431717    0.96308603     77.50588470  -27.63010790   33.40965510      0.00000203   -0.00000072    0.00000088
    1    0.98741306   -8.54024218    0.95230702    -40.17866961   10.58818012  -17.34086174     -0.00001671    0.00000440   -0.00000721
    1    0.52116056    8.68554533    0.68174273    -37.46154616   17.16923861  -16.20696075     -0.00001558    0.00000714   -0.00000674
    8   -7.94437454    2.64777285   -3.64192391  ******************************************      0.04749424   -0.01011117   -0.00597688
    1   -8.26245688    3.37439563   -3.03298026    -65.34572344   46.33700497   48.05049415     -0.00002718    0.00001927    0.00001999
    1   -7.07358960    2.38980057   -4.06043736     76.35503077   53.49630207  -39.91696563      0.00003176    0.00002225   -0.00001660
    8   -1.48608960   -5.39560880   -6.36951784     -8.02416642   31.78484852   75.14517830     -0.00000021    0.00000083    0.00000197
    1   -0.95229302   -6.23886470   -6.43237391     -1.03106675  -14.44834099  -42.19325395     -0.00000043   -0.00000601   -0.00001755
    1   -2.05601621   -4.85714022   -6.99016551     12.34636584  -17.68796640  -42.60600136      0.00000514   -0.00000736   -0.00001772
    8    6.44228692   -4.55964090    7.93541353    -34.28268778   30.31869474  -67.07925574     -0.00000090    0.00000079   -0.00000176
    1    6.75284726   -3.82793911    8.54215418     14.81102943  -18.01566490   31.25942561      0.00000616   -0.00000749    0.00001300
    1    6.45385694   -5.55945597    7.94974154     18.18560975  -12.34268612   35.65856992      0.00000756   -0.00000513    0.00001483
    8   -8.47039910   -9.31075001   -3.66197694    606.40835270 4127.40528637-2667.61230205      0.00001589    0.00010816   -0.00006990
    1   -7.89712149   -9.18091987   -4.47096780    -22.90699360  -10.14287030  -31.89497181     -0.00000953   -0.00000422   -0.00001327
    1   -9.39972310    9.36617506   -3.48327074     -3.68693229  -12.32003089  -36.60440648     -0.00000153   -0.00000512   -0.00001523
    8   -6.10405656   -3.13967837   -7.92002651   -905.48352260 3615.02372187 -444.85756816     -0.00002373    0.00009473   -0.00001166
    1   -6.63471013   -3.98364028   -7.84189743     62.92203599 -127.23612367  -15.64377814      0.00002617   -0.00005292   -0.00000651
    1   -5.13604352   -2.90401912   -8.00595360     53.59247268  -26.75894184  -11.85994757      0.00002229   -0.00001113   -0.00000493
    8    1.96619711   -6.24554371   -9.42452313  ******************************************     -0.09436021    0.05998038   -0.08135898
    1    1.87744902   -7.24061978   -9.38076708      2.66879202    0.43639160   37.06089971      0.00000111    0.00000018    0.00001542
    1    1.33840344   -5.46913588   -9.47961419    -60.48405669  -12.23573582    6.36012631     -0.00002516   -0.00000509    0.00000265
    8   -7.74548932    7.53942110    2.88738710    216.11569986  155.65596656   70.70920203      0.00000566    0.00000408    0.00000185
    1   -7.76955535    7.97648857    1.98829814    -40.50830450    8.39488915  -10.63090211     -0.00001685    0.00000349   -0.00000442
    1   -8.42215405    7.24164878    3.56075583    -27.99911884    4.02292954   -6.07865401     -0.00001165    0.00000167   -0.00000253
    8   -9.13874182    1.83592297   -7.20680674     84.11111458   -8.72518145  -17.95606037      0.00000220   -0.00000023   -0.00000047
    1    9.45394116    0.93918701   -7.03385956    -41.13741878    9.01485736   10.58128016     -0.00001711    0.00000375    0.00000440
    1   -9.47134318    2.77681498   -7.27057481    -43.60570721   -1.59628726    7.98756829     -0.00001814   -0.00000066    0.00000332
    8    7.22678977    0.65116870    0.08522709     28.67133029  -81.88950568   -3.72043765      0.00000075   -0.00000215   -0.00000010
    1    6.31922979    0.78393884   -0.31311334     -9.68015570   41.57906892    5.09426092     -0.00000403    0.00001729    0.00000212
    1    7.89190048    1.22252831    0.56600361    -18.25478449   41.60391591   -1.40240108     -0.00000759    0.00001731   -0.00000058
    8    1.71847785   -1.53402965   -7.51419407    -31.94502020   82.06487270    8.62704063     -0.00000084    0.00000215    0.00000023
    1    1.01112309   -2.16625533   -7.83027941     19.97900147  -38.84272521   -2.26574031      0.00000831   -0.00001616   -0.00000094
    1    2.68835389   -1.59883072   -7.27943882     11.42404936  -42.76744827   -5.81805177      0.00000475   -0.00001779   -0.00000242
    8    2.66771987   -6.69134319   -8.81976748  ******************************************      0.09437153   -0.05997519    0.08135534
    1    3.29281754   -6.68377118   -8.03927764     15.23183202   40.30042243   -7.82748566      0.00000634    0.00001676   -0.00000326
    1    2.35934854   -6.02722148    9.49921021   -401.15311651 -216.00274112   96.50032263     -0.00016686   -0.00008985    0.00004014
    8    2.66002186   -5.17408556   -4.36833569    -34.64419306   72.75534973   -7.85818309     -0.00000091    0.00000191   -0.00000021
    1    1.99993515   -5.92422137   -4.40770374     20.52987012  -34.20490320    3.90378976      0.00000854   -0.00001423    0.00000162
    1    3.65285493   -5.09349147   -4.28025960     12.65673230  -35.58205578    5.63801500      0.00000526   -0.00001480    0.00000235
    8   -6.21031167    2.62955783    3.43658669    -14.45169628  -47.82686085 -172.35285727     -0.00000038   -0.00000125   -0.00000452
    1   -5.67715610    3.42351468    3.72872501    -26.83602797   12.37691823   38.00247231     -0.00001116    0.00000515    0.00001581
    1   -7.02838955    2.15399031    3.75993504    -14.76094142   23.23513488   33.52663299     -0.00000614    0.00000966    0.00001395
    8   -4.55288989   -6.45247093   -5.88010932     45.13869241 -131.45033789  -69.03614585      0.00000118   -0.00000344   -0.00000181
    1   -5.51415093   -6.17689464   -5.87773332     -2.96715314   48.19988323    5.16880898     -0.00000123    0.00002005    0.00000215
    1   -3.67001494   -5.98290743   -5.88327232    -11.65798576   18.70234558   10.47175528     -0.00000485    0.00000778    0.00000436
    8   -6.62601712    6.19566666   -6.62215312  ****************************12785.17000394     -0.00055814   -0.00132257    0.00033503
    1   -5.76412119    5.77263120   -6.34260982     -8.42845148  -28.90223088    4.22394522     -0.00000351   -0.00001202    0.00000176
    1   -7.55864712    5.88015932   -6.79715630      4.90974597  -38.93322918    7.42377324      0.00000204   -0.00001619    0.00000309
    8   -2.04531920   -1.57109769   -3.58260985    -45.14741052  -52.67609868   15.25033812     -0.00000118   -0.00000138    0.00000040
    1   -2.20404237   -0.58814463   -3.48998275     42.33323901   18.82418578   17.58459342      0.00001761    0.00000783    0.00000731
    1   -1.24736934   -2.17379034   -3.58486185     37.53073675   22.91117107    6.65994716      0.00001561    0.00000953    0.00000277
    8   -4.16526948   -6.62790812   -8.34874597   5791.09748100 2010.01739609 6952.17137782      0.00015175    0.00005267    0.00018218
    1   -5.00509638   -7.07696760   -8.65371330    -46.29721753   67.50928111  -48.54647764     -0.00001926    0.00002808   -0.00002019
    1   -3.93166522   -5.90348934   -7.70019727    -53.16098948   -6.71349619   10.78351233     -0.00002211   -0.00000279    0.00000449
    8    4.77645613   -9.28453598   -2.93163815   2986.32652627**************-5547.93610830      0.00007825   -0.00043336   -0.00014538
    1    5.20764760    8.90863457   -3.33541458    -10.68582245  -34.21152364   28.06375814     -0.00000444   -0.00001423    0.00001167
    1    4.22236654   -9.09479877   -2.12111228     -2.02954963   -6.65239214   21.77002547     -0.00000084   -0.00000277    0.00000906
    8   -5.25644065   -5.70500013   -3.77384406  20107.26267584**************-6620.87258786      0.00052690   -0.00073219   -0.00017350
    1   -4.29206361   -5.53150494   -3.57422984     38.59801357  -18.19809696   25.39106560      0.00001606   -0.00000757    0.00001056
    1   -5.94346539   -6.36968684   -3.48032174     50.09974739  -73.23887693  131.39264183      0.00002084   -0.00003046    0.00005465
    8   -7.01120953   -3.63720891    2.99270422  33715.80613013**************-5637.93626951      0.00088350   -0.00052156   -0.00014774
    1   -7.24674479   -3.84792514    3.94143524     -7.53323107  -30.38980004   37.85984322     -0.00000313   -0.00001264    0.00001575
    1   -7.47334803   -3.69215897    2.10761826    -51.37068209  -10.92511228   21.13248708     -0.00002137   -0.00000454    0.00000879
    8    7.42805798   -3.46759273   -1.26447036     -6.38988402   85.64188639    4.81702742     -0.00000017    0.00000224    0.00000013
    1    6.57371506   -3.98181728   -1.18936928      6.99647782  -44.00637313   -3.51254333      0.00000291   -0.00001830   -0.00000146
    1    8.40170403   -3.69218997   -1.30370840     -3.37504105  -42.98025836    1.41959180     -0.00000140   -0.00001788    0.00000059
    8   -2.32673550   -8.25226587   -4.05552536  ******************************************     -0.00561149    0.01430786   -0.01063384
    1   -1.90522905   -7.89262848   -4.88797025     19.33485491  -39.24098186   -3.83920301      0.00000804   -0.00001632   -0.00000160
    1   -2.31019748   -9.11936980   -3.55770382    706.04963482  -60.34151946  288.43514425      0.00029368   -0.00002510    0.00011997
    8   -3.58177685   -8.44850008   -1.28270038     66.66604889 -347.57405044 -643.23644690      0.00000175   -0.00000911   -0.00001686
    1   -3.41367767   -7.57187914   -0.83187189     22.47559100    2.25568368   66.54073647      0.00000935    0.00000094    0.00002768
    1   -3.43600469   -9.41212711   -1.05877614     20.06615866    2.94518316   39.72004260      0.00000835    0.00000122    0.00001652
    8   -8.64756529    8.23833485   -2.69091489   -513.12436567-4041.53626185 2753.11389764     -0.00001345   -0.00010591    0.00007214
    1   -8.12457673    7.66044223   -2.06442222    -19.91309566  -32.69785769   -3.92048096     -0.00000828   -0.00001360   -0.00000163
    1   -9.43019913    8.11359972   -3.30074555     -4.78098398  -54.93180993    4.40096687     -0.00000199   -0.00002285    0.00000183
    8   -0.00464200    2.57887177    2.85166406    -28.73680232   -6.53500855   82.93656617     -0.00000075   -0.00000017    0.00000217
    1    0.97192204    2.37792456    2.77476598     10.31510798    4.72163033  -42.61126585      0.00000429    0.00000196   -0.00001772
    1   -0.73542179    2.84707906    2.22397539     18.33222884    2.04575983  -40.48321758      0.00000763    0.00000085   -0.00001684
    8    1.08067316    1.13055821   -2.17860534    -71.06017600   28.41085632   41.83004124     -0.00000186    0.00000074    0.00000110
    1    1.30841841    0.18854920   -1.93218908     36.11654355  -11.07073453  -23.07663602      0.00001502   -0.00000461   -0.00000960
    1    1.45929957    1.82586196   -2.78947700     34.79569943  -17.99217161  -18.76199157      0.00001447   -0.00000748   -0.00000780
    8    4.79834316    3.68365396   -3.68771596     83.81348320   20.80414341   21.28483511      0.00000220    0.00000055    0.00000056
    1    4.69074004    2.70421991   -3.85829815    -42.06839328   -7.89852326  -10.32236522     -0.00001750   -0.00000329   -0.00000429
    1    4.20576652    4.48854982   -3.71877800    -41.28249894  -13.47702629  -11.78814856     -0.00001717   -0.00000561   -0.00000490
    8   -7.21128975   -6.72454523   -4.01145331   -181.27854887 -211.70045333  -77.48517463     -0.00000475   -0.00000555   -0.00000203
    1   -8.08349869   -6.49084198   -3.58179985     -4.55748848   43.56519084   29.10926490     -0.00000190    0.00001812    0.00001211
    1   -6.28760476   -6.34150281   -4.01878932    -34.40059360   66.97849708  -83.47548376     -0.00001431    0.00002786   -0.00003472
    8   -7.05957759   -9.12702281   -9.14869383  -6789.25238829 1807.10437569 1892.17577079     -0.00017791    0.00004735    0.00004958
    1   -6.70492121   -8.28339890    9.44823115    -27.42137312   32.14754170    7.59755689     -0.00001141    0.00001337    0.00000316
    1   -7.89769149   -9.40227610   -8.67777033    -28.69796823   38.62489299    7.42649098     -0.00001194    0.00001607    0.00000309
    8   -7.84455343    2.68786089    9.12219480     29.95186060   44.75464943   70.34101400      0.00000078    0.00000117    0.00000184
    1   -8.18328679    1.75287588    9.22723392    -14.34597533  -15.08568359  -37.19356283     -0.00000597   -0.00000628   -0.00001547
    1   -7.74479432    3.33622559    8.36744999    -16.25388946  -21.58416201  -37.03830365     -0.00000676   -0.00000898   -0.00001541
    8   -7.52610009   -6.51912401    3.87353516   7899.37299912 2306.18983614**************      0.00020700    0.00006043   -0.00041259
    1   -7.48824305   -6.99469552    4.75237911    -90.64129220   45.86972133   76.48770731     -0.00003770    0.00001908    0.00003182
    1   -8.18448080   -5.93403038    3.40006965    -25.44612420    8.66149957   33.64456188     -0.00001058    0.00000360    0.00001399
    8   -3.55164482   -4.21212253   -4.73495909     36.55349173   -6.86475175   50.15822854      0.00000096   -0.00000018    0.00000131
    1   -3.50014176   -3.22284246   -4.59842494      8.70062954   20.12216888  -30.66358745      0.00000362    0.00000837   -0.00001275
    1   -3.49892376   -4.83412319   -5.51617993      5.74147173   42.60222430  -19.00937331      0.00000239    0.00001772   -0.00000791
    8   -3.48565875   -6.61332511    8.76166042   1254.60260899  288.80051225-1120.04816501      0.00003288    0.00000757   -0.00002935
    1   -4.48475182   -6.64765914    8.73710039    -36.61262017  -56.19130789    0.29217655     -0.00001523   -0.00002337    0.00000012
    1   -2.73773794   -7.12712966    8.34143696    -26.24299601  -29.40510270  -25.46554747     -0.00001092   -0.00001223   -0.00001059
    8    5.63185105    6.18654665    4.04494135     50.25872240  -62.96282789  -43.06817954      0.00000132   -0.00000165   -0.00000113
    1    5.20213159    6.85802837    3.44126770    -22.94479443   30.87751089   24.76404444     -0.00000954    0.00001284    0.00001030
    1    5.63566306    6.00122745    5.02759740    -25.55271818   31.98342262   18.52788810     -0.00001063    0.00001330    0.00000771
    8   -5.82700926    1.01992310   -8.68509233     95.00598393 -125.78084526    4.12448685      0.00000249   -0.00000330    0.00000011
    1   -5.79243822    1.99167814   -8.91847058   -110.76050333  -35.17361650   16.53360405     -0.00004607   -0.00001463    0.00000688
    1   -6.54391703    0.35721038   -8.46870010    -46.30788428  110.30919071  -17.63904085     -0.00001926    0.00004588   -0.00000734
    8   -5.47330088    9.45589416    9.38456108   2300.6442911624694.57523681**************      0.00006029    0.00064710   -0.00096735
    1   -4.99980537   -9.01053268   -8.91471158    -46.61132344   23.46937996 -117.72483692     -0.00001939    0.00000976   -0.00004897
    1   -6.09735655   -9.34581904    8.62878527     28.24709656   81.01511562   73.42568776      0.00001175    0.00003370    0.00003054
    8   -6.17469364   -2.16617933    4.52488986    476.97248989 1373.97648642 -194.13897370      0.00001250    0.00003600   -0.00000509
    1   -6.35442883   -1.19200828    4.38831072    120.64378361  -22.28842463   11.45612618      0.00005018   -0.00000927    0.00000477
    1   -5.36347076   -2.73726494    4.65038500     32.90001643  128.70477232  -31.25533510      0.00001368    0.00005353   -0.00001300
    8   -2.06509022   -1.52563964    7.72640130   -163.21478382  -50.25354082   -9.65473081     -0.00000428   -0.00000132   -0.00000025
    1   -1.94682309   -0.69160574    8.26525988    103.78911973  -39.95703767  -41.59616225      0.00004317   -0.00001662   -0.00001730
    1   -1.46242457   -2.16514433    7.24912079     57.99283918   91.69636185   51.94073191      0.00002412    0.00003814    0.00002160
    8    6.40861489    6.87511939   -8.85910452      3.64683850  110.54357563 -126.01089465      0.00000010    0.00000290   -0.00000330
    1    7.26201480    6.46958795   -8.53165717    -90.36603844  -37.99586615   55.51323078     -0.00003759   -0.00001580    0.00002309
    1    5.44280085    6.82098933   -8.60564525     72.76219425  -69.41184951   69.35876785      0.00003027   -0.00002887    0.00002885
    8    8.32476195   -8.60169124   -4.23433255   -110.13482574 -150.49167742  -41.09563658     -0.00000289   -0.00000394   -0.00000108
    1    8.96597163   -8.44174907   -3.48384174    -26.34330214  113.68771257  -50.96494829     -0.00001096    0.00004729   -0.00002120
    1    7.82115140   -8.03207963   -4.88386125     67.70462522   64.58139542   75.48288106      0.00002816    0.00002686    0.00003140
    8    8.58781623   -4.46374380   -7.79498738  ******************************************     -0.00160044   -0.00032652   -0.00076179
    1    8.13311874   -4.26894559   -8.66405231     37.50154509 -111.08827723    7.68245348      0.00001560   -0.00004621    0.00000320
    1    9.02256970   -5.25935765   -7.37313792    -69.23479713  -16.02808351  -79.46846285     -0.00002880   -0.00000667   -0.00003305
    8   -3.46714573   -6.91114743    5.22260461   3555.1285358910012.03855897-5068.52314484      0.00009316    0.00026236   -0.00013282
    1   -3.78539707   -7.85889845    5.20131259   -124.31144286    3.38867902   71.90443718     -0.00005171    0.00000141    0.00002991
    1   -3.89667719   -6.00814246    5.22996262    -84.23428597  -88.19384218   -8.66989554     -0.00003504   -0.00003668   -0.00000361
    8   -5.33193373    8.56381820   -8.44775208  -2888.95982086**************33892.18688266     -0.00007570   -0.00074989    0.00088812
    1   -5.95759340    7.84183243   -8.15235876    -41.00716135  164.55109567   63.48925236     -0.00001706    0.00006844    0.00002641
    1   -5.18290257   -9.47468718   -8.21700083    -92.97568705 -116.68476276   77.92631944     -0.00003867   -0.00004853    0.00003241
    8   -3.34755960   -6.20387667    0.81914588  35397.6242227969660.6606190821978.19273658      0.00092757    0.00182541    0.00057592
    1   -4.16500348   -6.77803128    0.77332683     41.95517433  -14.42901086  -29.01676156      0.00001745   -0.00000600   -0.00001207
    1   -3.15586939   -5.23785963    0.99245507   -117.92161620  -34.95444255    4.55966061     -0.00004905   -0.00001454    0.00000190
    8   -8.29110691   -2.87803209    3.15914739  **************19865.51446478 4291.38480854     -0.00088590    0.00052056    0.00011245
    1   -7.40619596   -2.42958061    3.28481553    -61.36413038   38.86434158   26.99990446     -0.00002552    0.00001617    0.00001123
    1   -9.25015394   -2.62531382    3.28693853     79.92020730   89.81048079   27.01566684      0.00003324    0.00003736    0.00001124
    8   -0.21145523   -6.21278968    6.52885102    -10.19671736   -1.57988221 -162.26559340     -0.00000027   -0.00000004   -0.00000425
    1   -0.34664237   -7.11583065    6.93654045     21.54322526   85.79520457   77.20238131      0.00000896    0.00003569    0.00003211
    1   -0.02282702   -5.29128069    6.86827538     -9.59632822  -83.60480708   84.53695255     -0.00000399   -0.00003478    0.00003516
    8   -8.51489715   -9.13533682   -7.04815057    321.95154386   23.64696648  401.29813804      0.00000844    0.00000062    0.00001052
    1   -9.44324915    9.49313720   -7.03888356     78.57524819 -114.58981476   73.58424038      0.00003268   -0.00004766    0.00003061
    1   -7.59086516    9.49413520   -6.95418947    -79.93447675  -80.57198384    8.40873358     -0.00003325   -0.00003351    0.00000350
    8   -1.24235534    4.91338528   -5.83750127  -7455.03616675 3473.02061137**************     -0.00019535    0.00009101   -0.00041353
    1   -0.78124684    4.17138848   -6.32410980   -111.82250061   26.83117185  -34.61873152     -0.00004651    0.00001116   -0.00001440
    1   -2.12297428    5.38187478   -5.90819035     18.14786920  -90.60287784  -75.79896337      0.00000755   -0.00003769   -0.00003153
    8    0.04441005   -2.55964675    2.91959614   -137.36332604   43.94168611   87.90914842     -0.00000360    0.00000115    0.00000230
    1   -0.11078712   -2.48589467    1.93448508    110.78026092  -37.38517999   28.68386958      0.00004608   -0.00001555    0.00001193
    1    0.80588687   -2.82776404    3.50970977     26.09139890   -6.74184079 -116.75801245      0.00001085   -0.00000280   -0.00004857
    8   -6.87128338   -3.89827719    4.93359530   -456.59916293-1700.98088058 1403.38642476     -0.00001196   -0.00004457    0.00003677
    1   -5.97683342   -3.55001481    5.21402360   -106.92210900   86.75149951    4.31481693     -0.00004447    0.00003608    0.00000179
    1   -7.79065737   -3.51885178    4.82987819     70.38431242   96.52030727   45.59487143      0.00002928    0.00004015    0.00001897
    8   -3.46635972    1.54136666    8.51380415    139.56804203  -72.27124708 -218.73133667      0.00000366   -0.00000189   -0.00000573
    1   -3.45796072    2.47866866    8.86217652    -78.15655197  -73.32160959   77.20198917     -0.00003251   -0.00003050    0.00003211
    1   -3.92355922    0.68668274    8.75968041    -31.31171341   97.32893275   73.26530963     -0.00001302    0.00004048    0.00003047
    8    6.71334421   -4.85542322   -5.83049227      8.32074338  107.55175746  -63.50934296      0.00000022    0.00000282   -0.00000166
    1    7.66070423   -4.76901812   -6.13873260    -72.51512053  -40.08789429  -88.05342477     -0.00003016   -0.00001667   -0.00003663
    1    5.85827230   -5.19682558   -6.22070368     98.11709956   -4.93831589  -76.84175191      0.00004081   -0.00000205   -0.00003196
    8   -9.02503170    2.87758709   -3.50499577  ******************************************     -0.04756626    0.01011321    0.00603011
    1    9.22185891    3.46138572   -3.80821809    110.68921353   38.26083542  -24.92899269      0.00004604    0.00001591   -0.00001037
    1   -8.02680163    2.93647716   -3.49885076    217.43351807 -842.60614685 -552.14079916      0.00009044   -0.00035048   -0.00022966
    8   -5.10113648    2.88172910    5.48129889     69.76268849 -140.44468195  136.63831126      0.00000183   -0.00000368    0.00000358
    1   -4.45891879    3.17156341    4.77170613    -69.03929889   80.81412694   38.62363910     -0.00002872    0.00003361    0.00001607
    1   -5.83881527    3.31077956    6.00255945     54.26441226   71.80209532  -78.20344973      0.00002257    0.00002987   -0.00003253
    8   -3.72798101    9.06929975   -8.42725006  ******************************************     -0.01381548    0.00695276    0.00769251
    1   -3.47403673   -8.97897765   -8.25501187     54.45763645  -58.56876024 -101.91860637      0.00002265   -0.00002436   -0.00004239
    1   -3.53901080    8.39175702   -9.13802182    137.44199944  165.56769726   32.57838340      0.00005717    0.00006887    0.00001355
    8   -8.63383528    9.46946818    7.31010786     96.23774798 -128.78004250   -0.30383262      0.00000252   -0.00000337   -0.00000001
    1   -8.18051879   -8.73192338    7.70591728   -109.86862599   17.10293254  -36.39485664     -0.00004570    0.00000711   -0.00001514
    1    9.46106817    9.26816296    6.93566445     10.63682846  110.33401252   35.18834454      0.00000442    0.00004589    0.00001464
    8    8.02983263   -1.66680079   -6.64001114    102.49514955 -129.87417580   28.57319561      0.00000269   -0.00000340    0.00000075