 BEGIN_INFO
   #
   # This is a XCRYSDEN-Structure-File
   # aimed for Visualization of Fermi Surface
   #
   # Case: Tight-binding calculation
   #
   # Launch as: xcrysden --xsf HICOLM.XSF
   #
 END_INFO
 # estrutura final
CRYSTAL
PRIMVEC
      14.38571226       0.00000000       0.00000000
       0.00000000      14.38571226       0.00000000
       0.00000000       0.00000000      14.38571226
PRIMCOORD
  300    1
    8   -4.79205482    6.16138387   -2.91689752      0.58178486    1.69333725    1.54162800      4.71952376   -1.59377676    9.59987662
    1   -5.09904220    5.71686949   -3.70730056     -0.48054368   -1.25013920   -0.64748818     20.39704013   36.66206574  -19.09427349
    1   -4.59321781    5.46081207   -2.27991936     -0.00504361   -0.37105444   -0.34140226    -12.61894201   -1.21262576   -7.25243764
    8   -1.69022272   -6.05952994    6.27521803     -0.08723542    0.32802926    2.16904064      3.73638577   -6.51526348   -6.32490212
    1   -1.60307069   -6.61442593    5.46470963      0.91316888   -0.47425111    1.58774982     16.87200469  -26.18585311   -8.03881672
    1   -1.22884143   -6.48285743    7.10145225     -0.72964042    0.14447695   -3.60910263      5.11381332  -32.99246901   -0.91757022
    8   -2.00524990    1.14260930    0.95637603      0.50424535   -0.07377160   -1.78267365     -1.38140517    3.24807613    0.12464169
    1   -1.72971932    0.64876539    1.72423833     -0.01253286    0.13538392    1.12517015     -8.97314869   -4.97369099   14.98135207
    1   -2.78659961    1.63550245    1.21608661     -0.32212810    0.13391130    0.88340881    -25.20436149   19.48318993  -19.49396460
    8    4.13714006   -1.42524115    3.75742623      0.82499204    1.15748802    2.21811328      4.73392643    5.16476439    6.26373604
    1    4.21714964   -0.89262330    2.95705905     -0.11826591   -0.23731803   -0.92987313    -23.12490404  -28.06729891  -15.46035209
    1    3.90616372   -2.29627410    3.49115273     -0.52886128   -0.98746908   -1.24146226     -0.17765781    7.85954502    9.82239605
    8   -2.21499333    4.73848298    0.56227261      1.56781043    3.40853489    0.76627588     -2.29593060    2.66122860   -3.90652723
    1   -3.04727168    5.19247201    0.46111543     -0.65616839    0.29630944   -0.24094522     -2.61388131   -1.33455763  -12.23411200
    1   -2.46024970    3.89417428    0.45557444     -0.98189049   -3.60077019   -0.50253129     12.29800966    7.81988984   35.67630010
    8    0.24905863    4.25794328    2.11104768      1.51136769   -0.39410339   -1.21668364      1.65546724   -1.41981036   -1.11807205
    1   -0.34870811    3.79604991    1.52585459     -0.84344478    0.04908854    0.17029548      6.48439638    9.94790150  -32.41291170
    1    1.08660277    4.11677176    1.60918569     -0.43924703    0.42314281    0.58984413      1.76529726   11.52895816   35.52444869
    8    6.45311792   -5.13686782   -4.13130282     -0.04646479   -0.00294354    0.75597697     -3.05680743   -3.31432594    0.93614020
    1    6.28038654   -4.43752102   -3.45789184      0.25746201   -0.78387314   -0.54372322     14.65184560   12.07158886   11.95756443
    1    6.59314161   -5.95026572   -3.58705809      0.02570814    0.65958693   -0.11062211     11.41136110   15.37338042    3.98526054
    8   -1.31213611   -3.22529556   -4.53573923      0.16672308    0.59827379    1.78654056     -1.67975883   -3.65605605   -1.08209492
    1   -0.35882618   -3.06326284   -4.56200581      0.29901040   -0.12231095   -0.32392619    -23.25291521   16.31995346   29.04081730
    1   -1.52230622   -3.41510194   -5.42540440     -0.22150554   -0.26941998   -1.69806060      3.54551049    0.98921150   -7.44482097
    8   -3.07276804   -6.49733394   -3.84505303     -0.23964165    0.16764430   -0.65772464      1.71833467   -1.27310138   -3.75248176
    1   -3.72948147   -7.17751216   -3.58510434      0.12082110    0.04771380    0.68578951     25.75502570   18.02642999   -0.25183876
    1   -3.26881021   -6.44116944   -4.80405787      0.26322794    0.33062527    0.14087046    -13.43703495    8.46595473    2.51896386
    8   -3.31686783    3.74008062   -2.11855430     -0.41588489   -0.19851284    0.05005480      2.84616934    2.57137551    3.60517121
    1   -3.34993304    2.97815894   -2.69992124     -0.15693799   -0.31262562   -0.12427138     -4.30936560   28.48282769    6.32686074
    1   -2.48271235    4.13600962   -2.37218781      0.56928950    0.49367687   -0.14291850     21.89885755   -9.92041549   -5.38812677
    8   -0.45907846   -3.69713101    0.58697838     -1.26935981    0.72006299   -1.05929018      1.38309757   -0.60979024   -3.90580898
    1   -0.97427162   -2.91290134    0.24758902      0.64661121   -0.49576620    0.75764708    -28.98602746   -7.57406121   11.03522036
    1   -1.03760291   -4.41320025    0.27507622      0.12183650   -0.19578294    0.17006169    -20.32864773  -19.25405512   10.58902443
    8   -4.89209439   -1.17465980   -3.28159632     -0.10364226    0.54994290   -1.27064648     -2.83463661    2.17876538   -6.22823033
    1   -5.44806395   -1.40691276   -4.04732836     -0.46932699    0.54049459   -0.35621626     -6.27978259  -24.32944897   22.48152305
    1   -4.47943078   -2.00413346   -3.16773891      1.17018213   -1.18534301    0.81679368    -18.59068696  -19.67329407    4.95247273
    8    3.40021092    5.81508281    4.92527512     -0.10305029   -0.59495554   -0.96628766     -0.50945832    1.43177983   12.83903025
    1    3.34961086    6.66314924    5.35321122      0.02400434    0.62257884    0.40497935    -11.41211601   15.29634821    5.91387736
    1    3.59838536    6.05830024    4.00427395     -0.08415832   -0.07011815    0.34425054      2.26919897  -10.21704066  -10.46248764
    8    3.78527110   -5.32958218    0.95406390     -1.67685845   -0.34089124    1.15085284      1.00199347   -4.79629681   -3.37490094
    1    3.23346660   -6.06747612    1.30348753      0.92610848   -0.06113349   -0.53952463     -8.44240647    4.38484015  -22.77883344
    1    3.22185789   -4.58201234    1.22169338      0.64674398    0.22723801   -0.28632356     26.91891814  -11.73808712  -14.73728454
    8    1.82311830   -0.25141459   -5.88248160     -2.22006179   -0.53174456    2.02687055     -4.84901314   -3.82399713    0.97280019
    1    2.55606308    0.04467381   -5.32908490      0.62800573    0.28283962   -0.41725527     -0.23495927    1.02980167   -2.09105071
    1    2.07567012   -0.15836632   -6.76380084      1.48340027    0.38769070   -1.86843994     18.01716419   -1.49485004    6.22443937
    8   -2.85230387   -3.06805610    2.83555641     -2.05476375    1.11777105   -0.02265903     -4.24299856   -1.88259741    5.31600563
    1   -3.21999873   -2.68295529    3.67592052      0.81757579   -0.37541491   -0.50750773     31.24847719  -14.89631971   -6.03789928
    1   -3.52355812   -2.72505041    2.18417234      1.07608873   -0.56687049    0.43348876     27.40284201   -7.61768740   -3.49380226
    8    6.82302235   -3.66602530    5.91360398      1.08734690   -0.07438454    0.58554740      0.32476874    2.86261666    2.25392453
    1   -7.01574821   -4.24825918    6.48368869     -0.54460252    0.58976352   -0.52585128     -3.21080314    9.87431724   16.54030351
    1    6.20973692   -4.27410288    5.49997958     -0.51531980   -0.56165329   -0.36242657     36.11238797   -0.75940377   -9.00856018
    8   -4.26395217   -2.60764027    0.30541994      1.94920229   -2.02273578   -0.15716365      4.05233590    2.43560776    1.33336611
    1   -4.99596550   -2.03387665    0.37729767     -1.79940495    0.54649192    0.01421842      2.73404687    5.63574307   -6.99069895
    1   -4.62187668   -3.51279613    0.10750420     -0.22008803    1.38390946    0.22812206      2.07792649  -14.03985771   -7.87107616
    8    2.56894436   -5.83257452    4.95414000     -0.27934521   -0.12665075    0.06999252      2.16741940   -2.04816021   -1.60494981
    1    1.81997110   -6.41597052    4.81222727     -0.57621519   -0.63135307   -0.47271935     -9.86709010   -2.10101752   -6.10705677
    1    2.18934551   -5.27033577    5.63560928      0.11170828    0.73783292    0.57845713     10.33553263   52.33939227   17.18209954
    8    1.19203143    4.20319478    4.58207903      0.08615230    0.04843400   -0.30124130      6.67625931    0.40763411   -3.25302541
    1    1.13312063    4.39087487    3.61586797     -0.49230860   -0.38286619    0.51889410      7.86900841   11.15081641  -11.24856108
    1    1.90690419    4.78745496    4.85663049      0.68571653    0.04780450    0.17506611     33.09035629   -6.70333444   -3.28684879
    8    6.29502505   -5.89383714   -0.20958983      0.82509828    0.68362157   -0.04085226     -9.22670094    0.63473609    0.04810041
    1    5.59082194   -6.55634353   -0.13115570     -0.31469762   -0.16463734    0.05345248     12.28392768    0.05717343   10.45984324
    1    5.89340151   -5.07817657    0.11274766     -0.40363157   -0.30724786    0.09133219     16.89352359   -9.74014849   -1.01895043
    8   -0.32403963   -2.64153168    3.61605347     -0.20859736    0.28655324   -0.87163178     -9.55246692    3.14004313    0.84079144
    1   -1.13872827   -2.99513655    3.19360043      0.27277601   -0.04595791    0.52321947     18.65771422    1.12381188   21.69889017
    1   -0.36040797   -1.72278947    3.29816928      0.23885952    0.06912575    0.42654931     24.77205592  -23.89960797    1.43969207
    8    5.82938091    2.53520424   -5.51469550     -1.30797693    0.02443794   -0.64128025     -4.68653494    0.73016571    1.75230336
    1    6.37114369    2.37400633   -6.32091997     -0.01723938   -0.11340782    0.42712965     -4.28750248  -26.55784327   -1.80822390
    1    4.91441206    2.60035309   -5.89101585      1.06650814   -0.02365866    0.55756482      7.80746809   -2.13140588    9.62307527
    8   -0.29480645    6.64680334   -0.15820110      1.64048884   -0.86468085   -2.69344115      3.32034460   -1.46201173    4.54128347
    1   -0.86327700    5.90762716    0.04704904     -0.83579142   -0.25637504    0.73364112     -4.07432620  -10.27670054    4.69596578
    1   -0.52131172   -7.03855251    0.41020886     -0.71766088    0.84847568    1.70673479      3.66435031  -13.77710181   13.65198450
    8    3.73693479    0.39348779   -4.08767124     -0.74180913    1.14732978    0.29572360      8.23038103   -4.53618488   -5.07655885
    1    4.47999599   -0.01252185   -4.47776558      1.55079500   -0.54059209   -0.67194196    -17.24728634   28.59224731   23.53955280
    1    3.33609382   -0.35761366   -3.66359235     -0.72243825   -0.66866785    0.77470982     18.03678305    7.36367353   22.40496617
    8    2.55602390    6.56537474    1.96501252     -1.52806208   -0.03355948   -0.43308392     -1.63747137    0.92446564    2.34405649
    1    2.54112049    5.75966312    1.44179435      0.72389481   -0.35199056   -0.21529339      7.38553671  -20.16526675   -7.90364769
    1    1.61606656    6.83679489    1.82061692      0.89627591    0.51804465    0.57564632      3.63494217    7.73809181   25.15680840
    8   -0.49928627   -1.19625515   -2.49944830     -2.16722292   -2.38148270    0.19100589     -5.76623580    5.37688991   -3.83971968
    1   -1.06788109   -1.81728818   -3.01002463      1.28272461    1.03249900   -1.09905674    -12.81218908    4.48365734  -10.02165889
    1   -0.95184457   -1.41646611   -1.66844399      0.81277559    1.05696459    0.97014710     28.94834799  -10.70626150  -13.64304682
    8   -5.02646802    4.68734403   -0.21584122      0.06856070   -0.92507758   -0.22098984     -1.26714244    5.68979773   -4.38793901
    1   -5.77620088    4.13633915    0.10991152     -0.08846495    0.58011378    0.01961289     -7.44064344  -16.33735503   18.90492685
    1   -4.60715714    4.06286976   -0.84581288      0.28851651    0.57890361    0.13659576      5.08013866   -0.62010921   -4.14895823
    8   -1.47419341    4.20185886    5.29168103     -1.50537139    0.25615003    0.22672558     -2.74236990    4.92680700    2.60361953
    1   -0.58062101    3.92897457    5.08863472      0.76638138    0.04923512   -0.52282900     -0.02560278   11.82772373    8.20471138
    1   -1.77527558    4.71150754    4.51037067      0.74989772   -0.12480466    0.25305562     23.22846309  -20.71511060  -15.50031881
    8   -5.58615586   -0.91695197    2.34713219      1.86431257    1.00907858   -3.18361784     -0.95037238    2.41664351    1.27565157
    1   -6.08726230   -1.23883353    3.07147537     -0.65010063    0.28551171    2.14973449      9.07696672    6.31716966   22.46845398
    1   -5.04773774   -0.13394397    2.62543835     -0.99646666   -1.10316961    0.94216576     12.44914520   -3.71701719   -3.87812620
    8    1.56907341   -4.38676852    7.13079521     -0.05517448   -0.06120789    1.32497086     -5.92034674    0.28871653    1.24554678
    1    1.33360050   -3.81318698   -6.47604790      0.31142778   -0.53825017   -0.81783670     25.04754595    1.92946944    5.92984411
    1    1.46617446   -5.28684929   -6.85728191     -0.18583008    0.49133508   -0.35072190    -12.79188883   -9.81249652  -14.07936557
    8   -5.68945768    4.26526398    3.63836845     -2.24687273    0.78090977    0.65872569     -3.19018302   -1.39745677   -3.24255934
    1   -5.02793591    4.28776418    4.33296660      0.32411957   -0.28781955    0.44194383     -2.49888193    6.17551768    6.46212609
    1   -6.54472681    4.46398876    4.14345870      1.85192004   -0.38142523   -1.06475756     23.02335220    0.75390859    4.99121494
    8    3.26559523   -0.01951512    5.86320136      2.41952777   -0.38777426   -1.84130552     -0.24374374    3.25326832   -7.53644394
    1    3.60670500   -0.77588990    5.28789570     -1.20538381    0.88187754    0.97937339     -0.81919227  -26.99418884   10.01097179
    1    3.94183452    0.66059252    5.56432144     -1.30558009   -0.34289933    0.95306972      3.14082509    7.87524841    7.62955125
    8   -0.42135189    0.91752419   -4.74456999     -2.33316896    2.08334453   -2.74052937      0.38153783   -5.82986174   -0.90136760
    1    0.25099177    0.43417446   -5.23584636      0.92452795   -0.85523917    1.13043060      1.50107635    7.78036359   -9.11954586
    1   -0.35531183    0.77839228   -3.82711901      1.22022159   -1.20407994    1.42487965    -28.04124408   -5.47886856    7.32752573
    8    4.26276146   -3.16968643   -6.93984074     -1.84119311   -0.62488074    0.32904385      2.20024755   -2.96111096   -0.23395941
    1    4.19252475   -2.92754922    6.50345126      0.10076859   -0.18730353    0.66363006     35.39039894  -17.22284527  -22.36890994
    1    3.33486401   -3.49037540   -6.71539210      1.55434398    0.71132613   -0.64699032      8.64328750   -0.25760039  -20.89977641
    8    2.13516349   -1.62456322   -2.77644381     -1.07942832    0.97945946    2.08788989      3.24133195   -1.43307125   -3.73214368
    1    1.17858332   -1.36138359   -2.76518252      0.58039112   -0.24794390   -0.79470593    -21.84273462    5.03631062    0.87895056
    1    2.24721111   -1.67011217   -1.79519935      0.75363477   -0.45801052   -0.98342054    -24.16145028    5.64316272   12.56702628
    8   -2.60204549   -5.42507887   -0.33127549      0.90938365    1.02306325   -1.37627010     -8.07323914    4.13426191   -3.09437227
    1   -2.68784029   -4.93718019   -1.20960419     -0.06129079   -0.74221730    1.38179331      5.70702244   12.31194002  -24.15686588
    1   -3.51042734   -5.49754931   -0.05140831     -1.04632848   -0.19933143   -0.05665183    -11.07077101   -4.90707085   -5.88589698
    8   -4.58090678    1.51496874   -4.13635103     -0.69580443    0.90815447    0.61375291      4.97881061   -6.53385934   -4.26518289
    1   -3.91181003    1.77720238   -4.81179278     -0.11515483   -1.47450134    0.21116813      4.65000804   13.66547530   30.69985484
    1   -4.58905900    0.54127189   -3.99931292      1.09342394    0.39667769   -0.84737541     22.49517769   19.30758378  -19.28902491
    8   -5.46323863   -5.57485420    0.30304991     -0.42333231    0.29247929    0.72227439     -3.91063213   -4.31253605   -7.28738401
    1   -5.76749246   -6.01266829    1.12613272      0.74636693   -0.07175175   -0.51770480     14.07689519  -13.72832714    3.42187961
    1   -6.32431427   -5.52388710   -0.14914992      0.19484664   -0.03987212   -0.36654250     17.78420441  -19.96703943   -8.53029666
    8    0.29951112    6.92162318    4.82685927      0.56128237   -3.00992812   -0.17953866      7.97871007   -2.16662926    4.60466817
    1   -0.29599445    6.60578394    4.10135243      0.07299943    0.85748576    0.46369703      0.68106736    0.03607531   -5.73539144
    1    0.59552272    6.02218729    5.17652934     -0.55355736    2.15644215   -0.32224636    -12.31328062   -4.80728848   29.46746170
    8    4.98298308   -5.27150100    4.36477569     -1.75649594   -0.84353719    0.62173610     -2.21631586   -5.65587292    2.95265670
    1    4.83587807   -5.52275734    3.46784073      0.90019334    0.19955355   -1.08347791      2.05642707   30.77876164  -11.46953354
    1    4.08315288   -5.58460593    4.70886069      1.44386182    0.98032907    0.33188343    -23.54511676  -15.18143064   15.14550110
    8   -4.91792618    1.75452248   -0.46825017      0.36748368    0.96565673    0.51625164     -2.86621343   -6.87582666    3.51892446
    1   -5.16807848    0.85111058   -0.46552788     -0.27258612   -1.52487377    0.02874947    -12.85694430    8.80779815   -6.30096842
    1   -5.35407787    2.06564421   -1.25311988     -0.18544593    0.32534055   -0.60566954     -8.09546095   21.71930646   -7.29396981
    8   -4.12339571    2.63335992    1.95495482     -1.16101808   -0.06540751   -1.43351913      8.84477148   -3.13167629    5.43917013
    1   -4.45843163    2.27782561    1.07261987      0.38081394    0.57195900    1.15675330    -10.58678528    4.34690743   22.44187019
    1   -4.84503811    3.26770869    2.19913870      0.71872860   -0.51060977    0.20550271     11.46093628  -24.43429822    4.45558079
    8    5.37649067    5.50137667   -4.07078173      0.25029753    0.74364598   -0.98639356     -7.16059271   -0.45048446   -0.32378052
    1    5.91161329    6.18474901   -3.58593206     -0.41686771   -1.22668505    0.31591767      7.45388815   13.93047608    3.96471803
    1    5.18790222    4.78815435   -3.44139438      0.56232726    0.57274438    0.49211550    -18.55733099    9.00026162    4.63062353
    8    5.59141751   -1.79993027   -4.61226823     -0.34112993    0.21989273   -1.17729085      2.82179154   -0.00695116   -4.88622761
    1    5.14831222   -2.36613619   -5.25424960     -0.52307734   -0.24801381    0.01980335     19.24349319  -12.19051518    0.27251675
    1    6.36670429   -1.54058369   -5.14733399      0.30334021    0.04245370    0.73356888    -15.07158594   12.10988693  -30.54720493
    8    3.53057947    2.78887515   -2.50052762      1.38499046   -2.50433816   -1.01287695      5.60148861    2.12761539   -0.94009741
    1    3.66827580    1.89852973   -2.98980239     -0.53556940    2.10279661    0.98078743    -20.28199169    2.86872566  -39.73888118
    1    2.61042822    2.98770587   -2.67215434     -0.97651767    0.07874071   -0.12699383     -3.60214909  -21.11552206  -16.77362042
    8   -3.04430719   -3.87499263   -2.65871793     -0.17683197   -0.30688677   -0.05978223     -6.55903486    2.80135389   -0.90419386
    1   -3.36547441   -4.62185900   -3.19486211      0.02019868   -0.03687661    0.28984844      3.84369011   12.25891094   -9.10654905
    1   -2.36920507   -3.50149977   -3.25502208      0.09440579   -0.03130129   -0.13412380     -8.38547333  -19.60967184   -3.23631485
    8    1.68895171   -2.23082358    0.10319985     -1.89349752    0.12102214   -2.01956107      1.11185460    4.00872771   -6.16433556
    1    2.06186425   -2.41130149    0.93774645      0.57961674   -0.68549141    1.57022846     13.89712139   -9.76939192   -5.39182502
    1    0.79073345   -2.68772368    0.13549913      1.66919196    0.27998705    0.29790574     15.22892153  -12.49664532   -9.87495757
    8    1.50685794    0.27396684    0.81199785      0.85867780   -0.30596124   -0.37193766      0.06855936    1.25950166    0.99006261
    1    1.45485836   -0.58385887    0.31338983     -0.09474718    0.70191456    0.53774826    -19.67289231    9.06339300    1.46429249
    1    2.47312451    0.35941785    0.93182163     -0.53779929    0.04280486    0.04893265    -16.76885921    7.33251836   -7.50427228
    8    0.16919576   -6.04299669    1.87199283      0.38447410    0.69159958   -0.06510659      2.02820588   -0.85138918   -0.97614613
    1   -0.46336806   -5.94010800    2.58628981     -0.25989698   -0.13387188    0.29988133    -13.12060637    1.93247623    9.34447166
    1    0.25257076   -5.12322395    1.54511377     -0.06864233   -0.37715274    0.01358287      6.38202980    2.41528783   15.40012154
    8   -4.05747002    3.68960060    5.91785982     -0.52141144   -0.73413766    0.95190780     -1.50808851    5.77637863    3.01714753
    1   -3.14247457    3.78614224    5.61059879      0.40844843    0.11295014    0.07571037     17.00962229  -16.10728545   32.01219626
    1   -3.97200445    2.96775015    6.58754114      0.09227362    0.88832917   -0.73082049    -21.73314999  -24.40279172   -4.33093239
    8    3.66520861    3.19191228    6.94062090      1.11634727   -2.01568875   -1.05845130     -6.62513804    2.40199480    1.64334156
    1    4.28393695    2.73375461    6.25367396     -1.71199475    1.48418318    1.44521212    -30.61083942    0.75035173   21.77914857
    1    3.87322392    4.12065070    6.88366392      0.58259621    0.86934098   -0.34538555     -2.12135583   -0.10240491    8.67907059
    8    4.54444880    5.82647139   -6.66848045      0.82328637    0.88590411    1.95089463     -3.91229108   -3.20226272    7.37334162
    1    4.49939201    6.81292256   -6.48558069     -0.01337827   -1.13156954   -0.50355905     -3.91869342   19.34306501  -32.52470838
    1    5.00371895    5.51205170   -5.82771048     -0.64203969    0.41828574   -1.32047508     15.05906043    8.79258357   -6.48680887
    8    4.88087137    6.24721782   -0.56047979      0.05839866    0.09785415    0.80362799     -4.43593733    8.35752434   -2.17981119
    1    5.11275306    5.39441655   -0.99816542     -0.63705369    0.68356912   -0.20393791     -9.28055647   37.19595940    7.58337125
    1    4.00354110    6.55139811   -0.93259255      0.78530409   -1.03405322   -0.28242584     -0.43567991   -4.52887608   24.73507795
    8    7.12992384   -1.44017533    4.32606246      0.01179385   -0.73151254    0.47883434     -0.37705848   -1.10061197    2.64293888
    1    6.19063882   -1.24043641    4.32839398     -0.35403711    0.08499047   -0.16594987     11.32275984    5.17949135   13.86039623
    1    7.13998462   -2.33395725    4.74193111     -0.01600935    0.31076998    0.00664736     10.52490031  -14.48127035   17.77996205
    8    6.58133777    5.67943081    5.36386122      0.39466895    0.33291645   -1.65948484     -2.63719168    0.31631872    3.10971981
    1    5.87286959    5.72936810    6.00530659     -0.67530058    0.14511235    0.10123399     -6.37895596  -11.53781122    1.23281485
    1    6.16295886    5.95361192    4.48618951      0.45818092   -0.60907698    1.59398119     17.40813668   18.55618943   40.63164082
    8   -1.79242799    6.24093849    3.27685885      1.75007420   -3.30463933    0.08113032     -3.51119687   -1.49857822   -1.70232567
    1   -1.71244750    5.66762717    2.44288843     -0.78840657    1.98030532    1.22382477    -22.71488519    3.78568736   19.69089193
    1   -2.32340241    7.00408137    3.10773002     -0.93341058    0.98115621   -1.39516475     -3.04754297   -4.52651099   -1.71191322
    8    5.80579458    5.78054226    2.69524633     -0.32113981    1.12743222   -2.01143218      3.59492224   -0.03563986   11.21372248
    1    5.10649772    6.16189912    2.10021555      0.80653808   -0.64523916    0.96520643     -9.02893545    4.36893018   11.01051189
    1    6.61697410    5.97629524    2.14374537     -0.61395202   -0.44576188    0.87092466     -0.62874451   16.52609155   -3.88427941
    8   -5.46788135   -0.23683504    5.96103078      0.61796308    0.63303462    3.34391834      2.67943030    4.17151112   -5.87283692
    1   -4.91580713    0.24020052    5.32836695      0.05197048    0.16302832   -1.22786654      0.82517342    9.11147990    0.09385225
    1   -6.08326604   -0.74019108    5.46669787     -0.97744697   -0.60803189   -1.80316134     11.25919589   17.29377030   -0.48144619
    8   -1.17005694    1.34010765   -1.80803158     -1.41280348    2.38738126    2.07405992     -2.31119666   -1.49803519    4.75146202
    1   -0.86148019    0.47778254   -1.69209026      0.84415595   -2.03510986   -0.37530297     18.67823055  -22.46710801   -3.91758296
    1   -1.56454110    1.50329767   -0.89959485      0.49605275   -0.04874758   -1.52619007     11.22087562   10.55062953   -6.72036551
    8   -6.11301660    6.37141615    1.54014000     -0.60033484    0.85645678    0.97916378      2.29988496   -1.06125330   -4.32853879
    1   -5.64956885    5.80898119    0.92333698      0.34536205   -0.47950702   -0.89689393     25.30673341   16.98659906    5.08570221
    1   -5.81844556    6.02897468    2.38531817      0.13417217   -0.24962829    0.29978439      7.02088510    3.55360867   -5.10067069
    8   -5.85842954    4.65269065   -4.67323938      0.22055916    0.67246603   -1.31978146      4.52847603   -1.79307286    4.54632193
    1   -6.09524000    3.90502625   -4.13838801     -0.62360389   -0.87750887    0.32676717      8.25283272  -26.87017949   20.05523991
    1   -6.46929492    4.62755251   -5.42635044      0.02397829   -0.20516905    0.59888243      8.90898768   13.28454769  -11.90292141
    8    1.51168801   -3.31903347   -4.69218056     -1.26890249   -1.78099871   -1.91767810     -1.07018259   -0.42913292    3.82041683
    1    1.94291901   -2.62699921   -4.23148654      0.79953707    1.22618168    1.35667040    -16.29901170   30.46156202  -30.33824761
    1    1.42322661   -4.02823763   -4.02740658      0.29909834    0.30458903    0.37877293     10.47044532  -19.79269191  -15.18949990
    8   -5.05257800    6.53523681    6.22165360     -1.42901332   -0.78474384   -0.32766491      0.81901926    5.17059762    0.17208374
    1   -5.99763621    6.60087343    5.90587254      1.37755506   -0.30694599    0.41864521    -32.96773212   23.51712307   -7.85392470
    1   -4.87916203    5.56539739    6.21633218     -0.06902757    0.83989725   -0.03827578     -5.65366372  -12.66525123   23.86121128
    8   -3.97963602    1.08062795    4.23113926     -0.57289111    0.36605623   -0.79881353      0.00443142    0.99076976   -3.40320898
    1   -3.14473479    1.07606827    4.71820407      0.57468840    0.05123868    0.15238201    -30.59409162    0.59157406   13.60774716
    1   -3.86238941    1.80162037    3.57081525     -0.04300111   -0.41191494    0.35782585    -13.54532144   26.99794430   -2.62760945
    8   -3.29749824   -1.68885076    5.33191505     -1.33950294    0.45167905    0.87722551     -3.57404912   -8.15146035    4.55726324
    1   -4.01748889   -1.26268172    5.91042010      1.64877060   -0.98408892   -1.27036980      2.99786934   26.65021774   -6.67326024
    1   -2.81576609   -2.27565597    5.93281137      0.04751699   -0.04076112    0.24318694      2.25815637    0.71219733   12.04485236
    8   -1.02509763    5.12420282   -3.40260413      0.38450303    0.17467597   -0.92457518      2.37393347   -1.97633321    3.75711255
    1   -0.86983571    5.06180538   -4.40698846     -0.48360811    0.82178015    1.81300600    -18.82159252   15.84224137   23.81500736
    1   -0.91008747    6.08902718   -3.18398650     -0.03469938   -0.95081063   -0.62739907     23.56297640    4.36052170  -10.74537837
    8   -0.71724843    5.25648558   -6.01012363     -1.02865276   -0.86713733   -0.52118066     -2.33461533    5.28901775   -3.67072057
    1   -0.07508460    4.50264327   -6.00418924     -0.48883874    0.24194674   -0.65191660     12.52029867  -12.75054782  -18.87901685
    1   -1.45065021    4.97233189   -6.62276211      1.42067825    0.09363615    0.74941026      4.06755185    1.04189052  -24.26350802
    8    6.16897036   -2.46385818   -2.18604737      0.61335112   -0.06365403    0.41294558      1.87510543    3.77392473   -1.53556254
    1    5.79982937   -2.20737876   -3.06522338     -0.00237452   -0.09571437    0.29463274     -8.58833880  -10.75354508   13.84151357
    1    5.44818651   -2.94015824   -1.74484447     -0.49689202    0.02465330   -0.27647660     -7.37793476  -21.07198665    8.41712091
    8   -2.66066211   -5.70436576    2.56799636      0.00931468    1.21107276   -0.64394127      3.71087385    2.16631026    0.48760115
    1   -2.68421438   -5.78858973    1.60288053      0.01883366   -0.18328292    0.12456157    -11.64040802   -3.33868705   12.37434733
    1   -2.70928565   -4.70926973    2.66448656     -0.03496867   -1.03314343    0.38970965    -24.08627003   -6.53998097   -1.65897978
    8   -1.39377128   -3.43896653    6.67749154     -0.81600698   -0.08489457    0.25314540      4.26191450   -0.58359740    1.76991389
    1   -1.51600966   -4.36727511    6.35588157      0.27447781    0.47302764    0.22230453     -2.15190664    5.07997785   24.10962872
    1   -0.53926368   -3.18760911    6.33436728      0.41674651   -0.20402964   -0.31532479    -10.22904374    3.06773505    1.54917825
    8    2.61254124    6.68480778   -1.72146037      0.79229166    0.63475722   -1.14526971      3.67168415   -3.75125910    4.13646357
    1    2.59344381    6.22388569   -2.58052928      0.15587434   -0.04379311   -0.11740265     24.37134117   14.08074409   -2.99317169
    1    1.87947355    6.30763866   -1.29058427     -1.44659966   -0.55231581    0.91107507      1.75912263   17.90239080  -14.60966859
    8   -2.62931341    1.98249079   -6.20771631     -0.70759006    0.92326808    1.67391635      1.86256181    2.54605346    4.51913429