 BEGIN_INFO
   #
   # This is a XCRYSDEN-Structure-File
   # aimed for Visualization of Fermi Surface
   #
   # Case: Tight-binding calculation
   #
   # Launch as: xcrysden --xsf HICOLM.XSF
   #
 END_INFO
 # estrutura final
CRYSTAL
PRIMVEC
      14.57735566       0.00000000       0.00000000
       0.00000000      14.57735566       0.00000000
       0.00000000       0.00000000      14.57735566
PRIMCOORD
  300    1
    8   -4.13400898   -4.46651918   -2.63003323    -15.42728501    6.98575465   -8.22409914     -0.84107332    1.91221531    0.24176447
    1   -4.50383100   -5.14795121   -3.21943402      4.96597287   -2.30214184   -2.47399804    -16.99102785  -24.10041291  -19.35195935
    1   -3.37320448   -4.89570873   -2.22031325      4.05881012   -2.91789265    2.77751276     -8.00988761   -0.54405090   -1.49721438
    8    0.45550980    2.97028971    6.77151060    -23.52936636   48.71245448  -13.00713436      1.92348867    0.10308571    2.78807215
    1    1.09125376    3.71073815    6.50642842    -29.08378816  -28.26213857    8.92136747     24.43948980  -10.64914115    4.55165701
    1   -0.45441216    3.42773178    6.69168654     46.44347297  -27.00378169    5.40670211     12.54721748  -24.43077610  -14.47937369
    8    4.69283389    1.34439166    5.32507634     -4.30191017   -5.99191898  -10.97166521     -2.77123842   -6.86186134   -7.18011968
    1    5.53428482    1.55483149    5.76980960      0.82210714    5.10779693    3.60426878     35.03025667  -23.13491560  -18.48237274
    1    4.08829653    1.21205452    6.07091593     -4.62508772    1.57508365    5.23785662     -3.86078640   -2.24640417   19.05187448
    8   -6.99226176   -2.15244334    6.24869623     16.37202756   19.01910228    0.55195127     -1.43101682   -4.27274072   -1.85229844
    1   -6.33406450   -1.42296450    6.25837509    -14.84259343   -1.48436779   16.78846661     37.78392953   -2.12410448  -18.17285393
    1   -6.76191181   -2.52704611    5.40344863     -1.59095546  -17.35862497  -18.12860255     -7.55700358   16.07403842   10.28130452
    8    0.14259419   -5.01025638   -5.27201351     33.41708091  -20.03073735  -34.74547622      1.60578504   -4.02732642    3.15225653
    1    0.94629358   -5.14617667   -5.85795675    -21.34016760   14.57257916   25.47406995     12.57231598  -32.83886556   17.35962304
    1   -0.17126582   -5.93300166   -5.25173063     -6.68018072    1.46461969   10.32687097      5.21581770    2.52668265   -6.66325983
    8   -6.46308578   -0.89278788   -1.48597830    -53.66755461  -23.23595203  -31.94768499     -2.85154258   -2.48576645   -2.59276317
    1    7.21898828   -1.25164974   -1.33400280      7.37940806    8.42220137   32.13895134     31.07827410   11.50532895    2.84341137
    1   -6.58359712   -0.84369779   -2.44314557     33.87806443   15.09849646   -0.08640768     20.03191493    3.02556897  -11.09540183
    8    2.58650309    1.09046036    7.18855657     25.83039181    1.96139538   -0.21466341     -3.54000304   -1.35843842   -1.83189182
    1    1.80979951    1.58494782    7.01062733    -24.63385943   34.69193693   -9.42908406    -22.69324006   -8.59709917    0.48441098
    1    2.19346345    0.26480923   -7.18043359     -0.55308863  -39.06346797   11.71872581    -34.72945626    0.28857546  -15.38794228
    8   -3.38143630    4.69910306   -5.96115137     21.72277036  -81.58125027    8.03866841      1.20598173    5.14621103    1.01068304
    1   -2.75436485    4.38817685   -6.64091567     -6.31313565   31.19017830  -18.46716530     -2.23316823   24.14562818   12.95911373
    1   -3.31872934    3.84285063   -5.44549286    -17.63528447   34.99219128    7.39605492      0.89282792    0.33281350  -21.65769835
    8   -7.13342731    4.14110327   -4.27903118    -13.36393388   23.84806710    7.44893304     -1.32495023   -5.12514783    2.27964909
    1   -6.57380540    4.19571089   -5.06327370      0.86709723   -5.74757476   -8.61367588      0.42297592   32.22795512   -6.32202382
    1   -6.80967040    3.38159584   -3.79811486     12.05742108  -18.37832683   -4.75716094    -15.07082457    0.31067716   20.39071123
    8    5.41647460   -6.42799113    5.26216156     22.79983199    0.78012689   27.61174990      2.91155981   -1.96579106   -0.99054282
    1    6.06230766   -5.88620312    5.80658144    -23.06546969  -27.56177039  -16.06017161     15.38822183  -11.40850230    8.08547903
    1    5.38757957    7.25931451    5.72086802      2.63635280   26.59194441  -11.42236474     -2.78256174   -2.45002883   -8.40091019
    8    3.53889735   -3.65738809    1.36198889     -4.70449353  -59.83158106  -35.90657629      5.43663526   -3.46891123   -4.31024746
    1    3.32770587   -4.05488380    0.45619283      6.28907259   14.48773571   43.41010011     13.44981578  -27.23595725   -2.14097052
    1    3.37851249   -2.74529501    1.22605448     -5.27738910   41.39822848   -4.30193625    -25.32805296  -14.09676473   -6.88239990
    8   -3.20716488    4.16336106   -0.17703814     -2.68005618   29.44989320    3.36533458     -2.04213381   -3.74769562   -4.25622321
    1   -2.72085467    4.58648964    0.57684757     -2.06570469  -23.48829208  -14.00212651     10.74282493   10.27539873  -13.56827924
    1   -2.52586766    3.62094858   -0.64518168     -4.31705443   -1.73287853   17.65680210    -15.07123298   -9.64275045  -10.66055081
    8    5.20487529    1.34875053   -1.40957526    -20.94896295   60.87124361  -33.23942086     -1.53992437   -1.67112240    3.87333200
    1    5.51407247    1.66530969   -0.55946565     10.52334281   -8.61667331   24.42294738     -3.94126230    0.43994410   11.85003659
    1    5.37353846    0.43328429   -1.40552404     10.61675487  -51.19179521   10.09542916     -5.55977140   -2.56563460    9.39369350
    8   -4.54284927   -2.05549102   -4.93503385     22.29068499   24.72262017   -7.18416555      2.00146203   -1.06653087   -8.33359397
    1   -5.49973486   -2.03346017   -5.10149047     -5.87186141  -18.25729327   10.36404810     31.89307360    4.48630882    8.14867265
    1   -4.35157763   -2.80486660   -4.35869805    -18.00291378   -7.19977767    2.63177650     21.71502892   -0.69974204   -8.65478296
    8    4.46670844   -6.67433884   -3.75269599     28.73852844   34.94624826    7.82738019     -2.92891357   -0.63822494    5.19376655
    1    5.21544029   -6.00831463   -3.51188853    -46.60969245  -45.51269995   -2.20933291     -3.62792687   -3.98920466    2.16613146
    1    4.02399788   -6.85543553   -2.88146731     19.22734125    2.14737490   -9.89589344    -31.74581417   -5.56522436   13.39049233
    8   -0.09588817    6.87067733   -4.71895482     -3.91797466   16.05016701  -15.03171198      6.66938085    7.80377450    2.29372319
    1    0.59873501    6.26960993   -5.03206150     -5.82472964   -4.18967860   10.04089175     15.39263338   -7.36190210  -30.85802258
    1   -0.04389370    6.81203385   -3.74814316      5.12794966  -13.76940572    2.69822634    -30.28808040  -16.53898300   31.57157534
    8   -3.82651583   -7.09212962    6.66161291     -1.49401266   -8.38690860    2.49786482      1.82700175   -8.13066729   -0.75926780
    1   -3.36949706   -7.08629006   -7.07995551     -2.96012074  -13.50343080   21.13922816    -11.06527773   18.76637025   18.89772022
    1   -3.38410454   -6.34797383    6.24163052      3.18605163   13.68080113  -18.50023899    -11.99471612    7.50289854   17.38593931
    8    4.23667511   -3.42065605   -2.64227595    -35.06968574  -11.07673612   39.68693842      3.04183693   -2.62086303    0.71463363
    1    3.87944908   -3.43877240   -3.51515210      5.07379258    9.52869276  -45.57826278    -29.45189710   -6.69961507    1.03942539
    1    3.43478133   -3.77395194   -2.17860356     28.39099130    4.82100965   11.02642398    -30.59259510    8.54073373  -14.47495178
    8   -0.59856019   -5.05337580    3.28405665      6.00501361   -0.64602278    7.36878081      0.73704223    7.40539304   -2.78705517
    1   -0.88570417   -4.77878959    2.38703187     -1.42355081    2.03961434    1.54478883    -34.54718617    4.49205682    1.43828099
    1    0.32634168   -4.75836373    3.30974785     -0.77055347    5.47890002    2.33679322      2.41002713   12.26345069   17.06710782
    8   -1.25896102    3.91205633   -3.06585154      2.83525794  -23.64746722   16.91089089      0.13008001   -0.30879712   -2.88007832
    1   -1.29416857    3.36865165   -2.23445635     -7.14048924   -0.28747445  -21.23302392      5.53299046   -5.11747439  -13.70692749
    1   -0.82297567    4.69322135   -2.72105446      6.86175033   24.41280684   -6.38810867     -7.23228287   38.93641025   15.78837582
    8    1.06770599    2.24630162    0.08022307     49.48236182   -8.97768664  -17.15137038     -2.16284775    3.08464042    2.46455181
    1    1.88135292    2.66957343    0.47141321    -25.80353086   -3.03527459    1.41950265     -9.85972700    7.06437157    2.75310336
    1    1.51637204    1.75521442   -0.67026523    -22.76501327   13.06196545   14.06952602    -27.32535539   13.02937687   -9.59519516
    8    2.37098155   -4.86304162   -1.00369987    -17.12004221   18.86984732   -9.04720948     -1.70813532    8.83968458    4.02439733
    1    2.57915163   -5.82146884   -1.10447237    -19.81016890   13.61905650   -2.81248235    -37.38152108   10.38001157  -14.23844130
    1    1.42036252   -4.70369137   -1.32203166     41.88425812  -28.88500370    8.09310065     11.01496624  -28.20747066  -17.53215134
    8   -5.51263188   -5.47936791    3.22882848     10.15107689  -35.48316194  -25.97196916      3.92386057   -5.85866531    0.15197776
    1   -6.35651042   -5.96069228    3.34258863      5.84346639   21.51870618    2.76907344    -14.01295816   10.90163126   -3.38441026
    1   -5.56465005   -4.70429144    3.76567576    -13.55592277   19.68896452   14.76309916     10.77789550   -8.95527653   14.39426256
    8    7.27750331    0.71087244   -5.64170803     -3.96495840  -55.82532544   19.74665607      0.02982854    3.15866295    1.65820483
    1   -7.12425716    1.10393914   -4.76293061      6.36928199   13.30161850   -7.30241453      8.56493432   16.76899521   -4.56768997
    1    7.26846701   -0.25829867   -5.37918833     -3.16218466   37.35460634  -25.14256623     -0.36019567    1.01904105   -5.35600591
    8   -3.88510261    2.80245014    4.10870607     -4.94630468  -58.79043131  -12.21406816      1.75025699   -3.13728392    0.57573044
    1   -4.69785516    2.31453883    4.28427170    -15.47746956   27.88648353   13.70036338     23.25900671   -5.23187306   13.39551019
    1   -3.43486346    2.01565153    3.72206261     26.13381862   29.95960626    0.52268604     -8.88994204   -7.95521541    5.02819208
    8   -0.74624227   -2.51230237   -5.45136816    -13.46322153  -28.33120943  -26.67874855     -0.12156657    1.19777690   -0.56308404
    1   -1.51874443   -2.68809151   -6.03689449      0.16847537   27.68399579    5.74804950     14.81387860   11.35005439  -13.01188487
    1   -0.43151849   -3.43722901   -5.42162571     16.12982120    2.75206083   13.38079395     10.51156734   -0.63788250    7.27787756
    8    6.67604509    2.34217444    6.82653185     -6.01109233   34.13469725  -54.18449014     -1.37325551    0.89142249    5.32000990
    1   -7.28687937    3.07661161    6.94628593     -0.24196623    3.48529636    5.89832886     -5.86780244    3.43314573  -55.15150079
    1    6.84542744    1.79931040   -7.02955674      8.82162069  -34.53294424   54.20315237    -28.28081452  -41.08816786  -14.26840018
    8    0.74907328   -0.87961997    4.20432199     19.79906203  -17.43855090   69.17095691      1.78313005   -0.94004014   -5.45004878
    1    0.23984480   -0.36410931    4.85909926     -2.08064739   -2.24593790   -1.04167205      4.31257069   -4.51301566    0.41919789
    1    0.44498058   -0.53016396    3.41949544    -18.56675874   20.42177681  -64.47966348     -1.61000968    1.93954356  -24.59592080
    8   -3.05930654    7.13614668   -5.15510837      5.24041996  -14.08263988   -6.96001254      4.16421452   -0.81290176   -1.17538441
    1   -3.07347953    6.13690281   -5.26850463      5.32008821   25.58633195   -0.69714295     23.74326339   11.79037833   15.71020684
    1   -2.18172233   -7.23741078   -4.81473342      6.72708376  -13.85148749   -0.87992562    -26.91517034  -21.52071533    5.36309139
    8    1.17439238   -0.82290827   -1.10797229    -22.94460650  -14.09637051  -16.67151925      1.56456611    6.04892185    1.90887117
    1    1.61550544   -0.20825266   -1.72016418     -0.46197330    1.56967630    3.67420994     25.61077434   -1.71803825  -14.50342477
    1    0.49742792   -1.27962131   -1.69986617     24.84044761   17.03764771   21.57647990     -3.74195837  -35.18211900   42.45911653
    8    6.00931281   -0.32341496    2.68729268     -3.60643686    5.01280569    7.44434065     -6.79422215   -1.79485252    0.11953372
    1    6.38827083    0.04109944    3.50666481     -2.35831101   -3.75247360   -5.59059800      0.19682764   -1.65477296   10.88880148
    1    5.04829038   -0.36416768    2.87865197      3.74166936   -3.99617786   -0.39274123     11.34206486   21.70449422   -7.80508296
    8    2.89988982    5.76582836   -6.58565568     -7.62483666    5.35561877   11.81757488      4.97394957   -0.58890081    1.56753928
    1    2.38514390    5.17921144   -6.01243270     -8.78989968   -3.32910389    1.59057772    -19.11093509   -0.61867007  -17.36874130
    1    3.78778532    5.62910817   -6.24771750     15.76117185    2.46743586    0.16874287     14.85970366   -1.42215133  -16.35109400
    8    1.64089919    5.16789625    5.80293169     -3.96069871   -0.89916665   -7.43965719      2.01539376   -2.88099756   -3.90922445
    1    2.04340386    5.73497791    6.47180541     -1.75590061    3.63495191   16.23261435      7.06431551   18.66658051   -0.77519321
    1    2.42363380    4.89982723    5.32681074     11.69897347  -12.13955371  -18.45543630     19.53563200   10.61759474   12.32705829
    8    5.24167267   -2.43946225   -7.04945754     39.41912885   -4.63984209   27.94329247     -5.09253860   -1.00024311   -2.01698225
    1    4.61352172   -2.38336295    6.87451750    -49.09162057    5.01118090  -38.41120486    -12.14627005   11.98922279   26.21326217
    1    6.05484585   -2.40128147    6.98898394      9.74338559    1.09067004    2.55978710     -4.15423771    1.92327593    6.58604464
    8    3.50518533    3.37954400    0.60935369    -49.85482009   20.78680844    6.06421383     -0.19790771   -2.87672383    7.76065443
    1    3.80150233    4.12608192    1.17802825     16.33479122  -26.02207490  -11.58166099     -7.22990587   -1.60093255   -8.48038847
    1    4.25655949    2.84870763    0.36448835     29.95563061    3.14068876   15.94026012    -31.13562601   11.90974885    1.98225295
    8   -0.61670511    5.46819889    4.54173162     -7.62390108  -68.41486164   48.13377794     -1.13176427    5.05880459   -3.54200402
    1    0.26632494    5.17236873    4.98638080    -35.61751390   40.03871865  -33.42205583      4.09269224   38.96909804  -18.02728089
    1   -0.45794340    6.23980871    4.04463964     35.79262109   30.79137004  -17.80955675      4.48093824   -0.48571472  -10.92301419
    8   -5.21898779   -6.27314664   -4.54133013    -27.10319986   11.99097884   12.71682243     -2.44173516   -3.57930962    1.11041025
    1   -4.53564036   -6.76653455   -4.97166382     43.30615052    3.47923146  -24.02370257    -30.76684186  -23.98979477   19.39395485
    1   -5.60908744   -7.02101896   -4.09737806    -24.16780882   -5.22347678   26.38931901     39.97574529    9.24794247  -33.38974096
    8   -5.74723403    3.22402755   -1.20565150     14.30824028  -52.09943383  -37.82474060     -1.49798397    3.16494540   -1.32189836
    1   -6.32411087    3.73347112   -0.68450352    -29.07238400   36.65904790   23.85698901     -8.85999128   -0.75662028   -7.63080232
    1   -4.89539320    3.62062672   -1.03944830     18.74246461    6.83049543    7.53672284     17.39213165   14.83390835  -23.45214987
    8   -1.48586683    2.37379736   -0.96819405     19.87055182  -30.44051156   -1.03073848      3.77531040    1.64730374    1.54076954
    1   -0.61072801    2.34419144   -0.53220583     -0.91442870    8.71381316    1.97574829    -35.08257679  -30.70392858  -20.90837695
    1   -1.61568309    1.41159539   -1.16396024     -8.77130380   12.70776636    1.18835772      4.13263059    1.48916899   -2.23115787
    8    2.52868046    4.71838799   -1.56194627    -26.83923976    6.72665272   18.41316917      0.31549371   -1.37323118   -4.51704275
    1    2.43717276    4.02896556   -0.82497875     30.80082265   19.03961283  -48.30870742     20.87389550   -0.69569172   17.42647139
    1    3.20362978    4.44927221   -2.22181488     -2.85283693  -22.49543300   24.40083350     -7.59954444    1.88427579  -21.70651406
    8    7.10457685   -2.62366930    1.66475816     -8.06540320   33.30408705  -17.45334827     -6.67907094   -1.50333382    9.40552675
    1   -7.25670637   -2.52491482    0.74272204     11.73204485  -28.18810305   -8.70764908      3.46107877   46.90068510  -30.13687697
    1    6.72400642   -1.73048199    1.77499860     -6.85392319   -9.30488978   30.50416751      4.19806050    4.00870473  -13.53425923
    8   -5.19983847    5.66028560    1.81321921     -9.03723291    9.56826536   21.76998606     -1.77706377    0.54462314   -1.49242224
    1   -4.94632586    6.08801886    2.65705108    -15.55191916    5.58762633    2.57257964      0.84024286   23.86170108    7.86454609
    1   -4.33201367    5.44787496    1.53544834     22.75811451  -17.21980371  -25.16637126      4.87299193    9.04067638   25.81921793
    8    3.30783888   -0.25946010    3.40710969      1.27224206   27.63081051   43.09250331      4.03908731    4.58490627    0.33591444
    1    3.67510164    0.31847228    4.10985170     17.10041491   -0.71236347  -20.42466281    -12.06572004   -3.69980013    9.91236696
    1    2.47561053   -0.45038519    3.85997440    -14.38511350  -19.87136000  -19.32876834     -0.93149252   13.77143826   13.67751121
    8    4.97873999    3.55550990   -2.90100319    -53.49979762    8.62827628   -3.24657821      4.40534318   -1.74946131    4.31935169
    1    5.86284374    3.76983612   -3.09581045     37.88459470    4.33687101   -6.37660396     -4.08643143   15.84999494   -3.17831433
    1    5.02179470    2.76207476   -2.35132843     10.56632012   -9.29349352    4.10199602      2.06748391   23.19448290   -7.39646590
    8   -6.20510301    4.72072113   -6.91356371     26.14153458  -18.04918830   18.51794455     -0.18027327   -1.03350384    0.18783299
    1   -6.21243747    5.49549267    7.09698923      5.39821788    6.98080756   -6.09496658    -51.70039754   10.20870777  -19.47917462
    1   -5.26065848    4.66585763   -6.60088538    -23.01690432    8.40104842  -13.44335940    -17.10972461  -29.16694259   -6.71817444
    8    0.37887597   -6.87817122    0.01466884     -4.05433046   -4.64782914   33.07375973      0.76687034    3.00405483   -4.17239407
    1    0.09331548   -5.96278971    0.21391146      5.19534437  -16.74715709    0.29652444     -9.01789458   16.92179166   -9.32131100
    1    0.43824079    7.26601624    0.91397035     -1.66689295   19.12746021  -27.13073489     12.89895864  -16.89722354    2.96824494
    8   -6.21181090    1.64348912   -3.48818542      2.35833782   -2.39218329   12.35818030      0.41080257    3.01182712   -6.66222071
    1   -6.25364913    2.11440918   -2.65570452     -2.86338964   10.93309108   15.47295335     15.99518214    0.17149921  -15.33743667
    1   -5.40387160    1.12918102   -3.34066932      9.10280136   -4.30746661  -10.75160654     16.33227638   -9.38827973   28.88005031
    8    2.25987577   -4.69857536    3.72705169    -20.62520531  -17.17391460   30.70357179     -1.85720475    2.76400761    3.53570696
    1    2.68098224   -4.23115273    3.01888622     18.49233011   17.70852699  -15.65855573     -6.21020062   13.15988865    1.95458828
    1    2.43281973   -4.15829659    4.54272073     -3.83371200   -3.59221092  -22.39966391      5.97487535   20.27614890  -21.81855096
    8    5.76192164   -7.16185015    0.79966789     17.78469417   24.60610693   81.95183387     -0.49918315    2.20513313   -2.98373728
    1    5.87776363   -6.44550193    1.53394685     -8.03410898  -23.86894544  -59.83511667      0.88449479  -26.40211787    8.59055888
    1    5.87437825    6.64696996    1.39700020    -11.16588699   -3.10051913  -17.39255721     30.19943254   22.10422455   -1.65950234
    8   -0.53920031   -1.94281397   -2.87095801     33.79788834  -65.05056169  -30.18640822      2.98013309   -1.44050350   -2.01642471
    1   -0.32907450   -1.92265498   -3.83265797    -16.87224859   22.32183530    5.53697241      4.69059199   24.78874883    6.76997845
    1   -0.37397056   -2.92852291   -2.76409019    -12.85733536   32.95190510   23.12571645     -7.13170057  -13.84839707   13.97054294
    8   -2.38008951   -5.17312597    5.67625549     13.83365082    5.53510038   -1.19529773     -3.28924723   -2.96852134   -5.66432247
    1   -1.60016321   -5.07874179    5.06932295    -17.89830953    7.83769324   17.26833920    -18.62977581   21.97033820   27.51961799
    1   -2.26559602   -4.51725877    6.40170779      7.09213877   -5.80380246  -21.63489614     35.84795677   16.39869916   -4.63465752
    8    2.68710587   -6.03290675   -6.09745740      2.34092909  -55.00161894    6.92583343      5.44032084    1.85133703    3.47047664
    1    3.04839083   -6.45951867   -5.28968163      1.09022325   29.03151420   -1.30093164    -13.28124897   28.48180073  -15.07222507
    1    2.58882172   -6.86544302   -6.62510234     -0.68497607   30.01166858   -3.31263497      3.60139031   37.90562139  -22.58643005
    8    6.37297762   -5.00638887   -2.68974997     22.87611781  -44.61614972  -30.20377254     -2.27882045   -2.39154828   -2.05224135
    1    5.71316770   -4.32440735   -2.66839357    -14.89333936   29.02913126   19.21368657    -20.98237872   -0.11268689   -5.39821343
    1    7.02519253   -4.80733323   -1.99923208    -10.49276469   15.39890848    6.85958875     25.65982570    5.27555562  -14.43351072
    8    3.07046521   -1.02441776    0.79642596    -12.59421593   18.87052582    4.71003735     -1.89890713   -2.02388557   -2.48869454
    1    2.32585463   -0.87264532    0.14684174     14.49631433   -0.61448065   23.01615592      6.51878556   -0.80629974   15.26116673
    1    2.86578794   -0.46062146    1.60995211      4.75808542  -24.87722306  -34.52483679    -15.34538905  -20.55392637  -22.78834086
    8   -2.96654737   -2.87286403   -7.05446380      6.59809254   -0.95368100  -25.13458639     -0.18840277   -1.48263150   -4.12126306
    1   -3.55064486   -2.47778086   -6.39090431     -6.41861051    4.94600058    3.64554824    -25.83827779   -3.00959249   -8.86112319
    1   -3.22739589   -2.43273545    6.68530466      2.71631808   -5.46177334   20.85530368      3.22393375    0.85124256  -16.49753707
    8   -3.13908444   -2.36245049    0.57916901     16.72072994  -24.75317625  -20.56309165      1.23913352    3.01826971   -1.34849597
    1   -3.48400010   -3.27803153    0.69843511     -3.96982085   14.23178825   -3.03291991    -16.29122220   -0.45549217    7.17267817
    1   -3.57955097   -1.87111263    1.25020905    -16.42207086   15.40765611   21.06309904    -16.83819046  -21.25080686   34.63275788
    8   -6.30833910   -3.78289551   -1.08983574     22.69665086   19.14437124  -36.48763340     -1.50183567    1.39699703   -1.21859912
    1   -5.61127678   -4.13528381   -1.71535292    -14.79782583    7.38626327   21.15946167    -14.89560341  -15.48916721  -28.45263832
    1   -6.18575919   -2.81211834   -1.21892405     -3.41492135  -20.61419013   10.13177298      3.06748167   18.98166891    6.76012823
    8    4.05421048    4.10621745    4.71996819    -10.33195639   33.92826497   14.61494614     -0.24230018   -5.67275580    4.68376019
    1    4.45150607    4.55634855    5.53952114     -1.11861894  -34.46144692  -30.83154401     -3.18693491  -25.26436092   18.16735910
    1    4.30030551    3.17030778    4.72256117     10.70637763   -2.41903317   20.50158528      4.30506400   -2.03437545   24.36393425
    8   -6.89314420    3.56035217    2.91935812     16.47357975   22.20754261   -5.04523377     -2.92507535   -3.02177869    5.15418435
    1   -6.44677080    4.39420713    2.63208880     -8.69060443  -20.26828635   -6.15154963     14.68448242    7.34069831   14.55619741
    1   -6.99836596    3.73261716    3.85461411     -9.49040456   -1.20295309    6.84757579     -5.43988118   21.87466448   -9.93126958
    8   -4.51038091   -0.45335127    2.30046754     18.95609601   29.20825225  -20.56014608      4.48098428    0.50609102    2.08970297
    1   -4.76207713   -0.02436700    1.44655690    -23.52918232  -15.30292200    5.54273106     35.52733629   20.63119165    5.76967755
    1   -3.76170858    0.15716855    2.48327884      5.31969976  -24.59559852   23.35534707     19.16320757   -4.42847263   -8.94947508
    8   -6.07310176    6.28268748   -2.91511857     19.23451914   15.80815164    9.58224391     -0.87862362   -0.98099121    3.16805755
    1   -6.39344397    5.58399479   -3.46333527    -13.29301096  -18.84307138  -22.34145780     -2.23587259    0.59464804  -16.98014893
    1   -6.23726863    5.91827508   -2.04805339     -9.29015951    0.65428914   19.08114307     20.45795821   16.86951970   10.29185610
    8    0.22846267    0.22970321    1.70414144     10.63929308   28.82566434  -53.89138077      1.03762666    2.22935432   -4.88628668
    1    0.49936313   -0.22734727    0.87323365    -10.75760636  -10.26600014   26.46858495      6.22358968    8.76324265    9.64729257
    1    0.33638312    1.15945956    1.36131458     -2.17550270  -18.48879675   23.79627190     -4.48614888  -28.14957721   -7.11466519
    8    3.96381774    7.18846719   -1.22913154      3.77207586   -8.32309454   30.14090910     -3.29603654   -3.27610776    0.56220036
    1    3.67790870    6.29947482   -0.99946302    -16.76880827   -6.05365465  -19.52304309     -2.27286260   18.00923877  -14.76697381
    1    4.54460409   -7.23831304   -0.45450401      7.25688805   19.24210187  -10.72255129     -8.43973021  -18.59655120   -1.18775147
    8    5.83705498    1.86673111    1.14718028     26.31864730   40.41623182   -9.47753468      2.44541555    0.55144708   -2.65424618
    1    6.58236588    2.42301317    1.49524806    -21.28317938  -13.35098275   -5.00999116     -1.44840758  -18.94180503   -7.76013515
    1    5.84773284    1.11215039    1.73359480      1.03514945  -19.59852573   11.07876245     19.29165227   20.51050444    4.33382830
    8    2.00945159   -2.85757112    5.72456144     -5.11593944    8.31652470    0.08866727     -0.20093187    0.03805687    5.58252330
    1    1.88223668   -2.56420863    6.62583046      5.77131085   -1.08822374   15.04104789    -21.14380495   -7.82316123    4.60993836
    1    1.45743290   -2.20411826    5.26486091      3.41157226   -4.50625067  -16.51055602     22.57436616   20.55407825   -4.50955098
    8   -6.65528960   -5.54975320    6.55237568    -17.11812230    1.21144831    3.04826365     -6.95127205   -2.41800573    3.95368027
    1   -5.82139457   -5.09237457    6.55945218     12.04864059    1.28570767   -3.81658853     -5.06019850   -0.10211103   41.47104610
    1   -6.99958926   -5.34722907   -7.13024867     -1.16496369   -6.44160975   -2.48385968      0.64554370   15.08833233    7.84971264
    8    6.22266471   -5.40103382    2.89157109     35.69517545  -68.43002214  -26.23353351     -5.94628814    1.72565634   -2.04606233
    1    6.01617883   -4.52662570    2.62685714    -23.53979603   37.26677836   17.17662498     -4.86623989  -21.71335345    5.96765316
    1    5.85099461   -5.62546699    3.76302595    -16.47574152   26.71329573    3.82088742    -11.17928829   -7.60440532   12.55159222
    8    0.00179066   -4.65850479   -2.53163112     10.19223718   21.27669716   31.14374843      2.90458176   -1.03055576    4.44887356
    1   -0.76875406   -5.19525977   -2.29953839     -4.53115623   -6.57433525   -3.02678433     -1.84481897  -18.91885230   11.06131896
    1    0.09386789   -4.72602639   -3.47508244     -4.31861027  -13.83574761  -26.75750235     33.04535683  -11.12825381  -20.13461933
    8    3.46465061   -3.39316819   -5.22274304    -16.89530309  -21.80967005   -9.54634873      5.60860686    4.23583264    5.99004851
    1    3.30744840   -4.17254348   -5.75665380    -23.64372967  -26.23451590   14.56736576      6.00722348  -11.27407266  -14.60566716
    1    4.14500659   -3.06669158   -5.77797016     37.22827172   41.48977751   -5.54283153     -2.07685197   19.09240757   -7.35785287
    8   -2.95349051    0.33242124   -7.19697656    -10.72682886  -14.51435406   -7.82878926     -1.70793621   -3.09258604    0.65794453
    1   -2.89209874    0.92109596   -6.44082258     -9.89656885    5.47295597    5.60967928     15.40568288  -10.96747703   37.63014086
    1   -3.91415081    0.22649403    7.19135547     10.84954175    8.25191223    9.38661070     -4.42020737  -28.36976024    4.57958932
    8   -2.63772211    2.31046381   -4.78757175    -12.05027663  -17.33661346  -13.26546750      1.78514026    5.13865850   -1.40565067
    1   -2.02778457    2.74210475   -4.19676786     14.27606455   21.00488757   11.19884544    -14.44749403   -7.38676276   -5.47065781
    1   -2.88060850    1.52785128   -4.26072558     -9.45180814    0.57492890   -3.06223755     -4.20469955   17.03605936    0.65914661
    8    1.20344451    4.19161206   -4.87240711     -8.32312707  -64.13768887    4.99009752     -3.06207739   -3.32809062   -0.29595178
    1    0.31603230    3.91572637   -4.54861590     11.11536187   26.06188605   -3.76309263      6.03341967   -2.30959414  -32.48830160
    1    1.61564119    3.27882220   -4.91368271      0.94168794   40.78268040   -2.18886979      0.38860471   10.37748338  -11.66500940
    8    5.21119771   -1.28810151   -1.20101221     39.61718631    5.07169752  -18.26974200     -1.26853881    0.49931815   -1.55311696