 BEGIN_INFO
   #
   # This is a XCRYSDEN-Structure-File
   # aimed for Visualization of Fermi Surface
   #
   # Case: Tight-binding calculation
   #
   # Launch as: xcrysden --xsf HICOLM.XSF
   #
 END_INFO
 # estrutura final
CRYSTAL
PRIMVEC
      14.41989822       0.00000000       0.00000000
       0.00000000      14.41989822       0.00000000
       0.00000000       0.00000000      14.41989822
PRIMCOORD
  300    1
    8    0.39291982    1.24595056   -4.59155467      0.94350740    0.00936467    1.16710024     -1.83428489   -3.31120510   -2.25089139
    1    1.12350296    1.82992937   -4.20430535     -1.10105150   -0.87954586    0.09417121      6.66838489    3.60962973    8.64400843
    1    0.54609972    1.34846100   -5.51314056     -0.09126172    0.38988473   -1.47460488    -12.91741913    7.60918892    7.12641804
    8   -1.63206785   -2.46830059    7.02517292     -0.35799810    0.97847442    0.59371705     -2.42044379    0.10869272   -4.72531705
    1   -0.70741911   -2.17920769    7.00007201      0.24030910    0.29874773   -0.15798064    -12.37250226  -18.45584061    5.10500713
    1   -1.53944646   -3.37425470    6.69769153     -0.04695813   -0.65583419   -0.32535490    -26.34729963    3.74832806  -30.40805349
    8   -5.89063117   -6.58866278    5.36396479      0.98923105    0.37901735    0.76658707     -1.40145022    3.73815324   -0.95458100
    1   -5.72216308   -6.42431841    6.33413197     -0.34755879   -0.40879665   -0.83599799     14.03460339    2.24149470    3.49778417
    1   -5.15354968   -6.07135285    4.96637463     -0.42586987   -0.24394717    0.03503490     -5.72932648   -1.07874567   -2.74160717
    8   -4.37828552   -4.58244610    4.25360083      0.43318676    0.69982329    0.41630548      1.77226276   -1.69467731   -4.07082871
    1   -4.24372070   -3.66602640    4.52977185      0.78335895   -0.16218346    0.67580267     23.37645561   -4.28301922  -10.03114244
    1   -5.13849903   -4.43716769    3.73875093     -1.31824164   -0.51933778   -1.16941751    -16.70094680  -24.25805584   -4.91766624
    8    2.95889297   -5.65837388    2.10956236     -1.76363959   -1.35184866   -2.30603440     -2.20209373    5.44911586    4.51521082
    1    3.51096528   -5.59298460    1.31063958     -0.02643473   -0.16840939    0.20933643     -5.46919095  -16.89559817    7.77440943
    1    3.46145041   -5.21529054    2.74576063      1.64258194    1.23038335    1.79241811    -17.98435524    6.86853826  -16.66859034
    8    2.72796044    1.55266933   -6.90247562     -0.04331275   -0.93153402   -0.67174239      0.79248903   -0.45644622   -4.46983324
    1    3.43782749    0.92657158   -6.70384765     -0.14968838    0.15150037    0.12929209    -11.18071492    3.71510049   -9.53440355
    1    2.95684089    2.30352047   -6.37603038      0.36735747    0.82461446    0.63922683     26.53165118   -9.34597159  -16.74802005
    8   -3.36507914   -3.49363572   -0.93997258     -0.19594609    1.00416392   -1.34358851      3.83195752   -2.68777691    2.62480451
    1   -3.53173980   -3.29760484   -1.90878461      0.34138319   -0.62919822    1.69844798     12.43610045   -8.05205981   32.11764252
    1   -3.46104209   -4.46004636   -0.88469328      0.03549449   -0.27541758   -0.08826617    -31.83414763  -18.06039682   -7.43331228
    8   -0.04338255    2.32236261   -7.11286395     -1.69429274    0.29303719    0.96125357      1.14320648    6.38681682   -2.30736644
    1   -0.68256181    2.09482460    6.60763255      0.97085184   -0.00564213   -0.20887594     -4.44535350    7.00341253  -20.21504396
    1    0.82655239    2.30046027    6.93024971      0.60246447   -0.27586200   -1.00598549    -27.52575493    0.54407652    7.38892765
    8    1.07031078   -6.70233604   -3.06046405      0.68749768   -1.88106251   -1.39445877     -1.97061114    1.45191943   -3.65950794
    1    1.62758950   -5.95040956   -3.27409751      0.28571156    1.15809698    0.28527061     14.40883131    5.26046022   -6.01791794
    1    1.46786172    7.08253766   -3.71328943     -1.05326648    0.22316724    1.23012543      6.40567360    0.81853563   26.44300048
    8   -4.98721706   -0.99974363   -1.28471701      0.28679408    0.39595228    0.36914715     -1.91465262   -1.50480572    4.81620972
    1   -5.27005861   -1.88847265   -0.99443215      0.09390764    0.60178874    0.11290439    -25.96545584   11.45678704   24.59000588
    1   -4.84750266   -0.49316912   -0.44432743     -0.30309017   -0.66131578   -0.75547267     11.74724792   10.52844204    5.07166902
    8    1.60828983   -4.05623070    4.95008791      0.89528179    0.68387117   -0.97904057      1.59629397   -0.94278615   -2.03504285
    1    1.88244145   -3.12089820    4.70480290     -0.18307692   -1.82063569    0.16198365     -3.90385077   -7.95863778    4.67075190
    1    2.26427328   -4.63437864    4.47499578     -0.57134513    1.08023622    0.38096926    -17.00096778  -18.89845832   15.95262507
    8    6.30819199    3.97014929   -2.86793774      0.67455299    1.26214811    0.84040971     -0.75329017   -4.25471583   -1.50436346
    1    5.61581303    3.34270374   -2.68944394     -0.74292237   -1.02571206   -0.31272406     18.45806327   11.00083014   -6.50435221
    1    6.52847048    3.85370848   -3.78816940     -0.26074422   -0.71670453   -0.85608485     -5.13861498   27.72990668   -2.41585306
    8    3.05726868    2.02152625    1.78951707     -0.28844529   -1.05652956   -0.08622236     -0.47221856    1.50431356   -6.71474289
    1    3.29972325    2.94910246    1.75105713      0.04107607    0.87032344    0.09891179     22.07333594  -10.88731286   -7.95977495
    1    3.89525196    1.56764834    1.60666587     -0.03115111   -0.03172986    0.13771483     14.84967623  -30.61259009   -7.92934086
    8    1.94424208    6.21178230   -0.26688619      1.23654715   -1.95783481    2.03022682     -1.76206128   -6.21009196    2.17460385
    1    2.76076371    6.30308650   -0.79356094     -0.41870448    0.46560867   -0.50301012     -4.69697496   34.35996927  -18.63281880
    1    1.28495191    6.71463067   -0.67383718     -0.79267644    1.38495594   -1.49686102      0.82321809  -33.75582872    6.86570591
    8   -6.82380717    0.68364687   -5.05120375      1.65160535   -0.89383438    2.47071465     -3.75451954    2.51082280   -4.23834293
    1    7.20845188   -0.08852094   -4.52648096      0.57716501    1.45671206   -0.68515189     -3.17049276    1.13621046    3.87398307
    1   -6.00449538    0.93441823   -4.47472340     -2.01338420   -0.87477491   -1.26942911     35.59887155  -23.48575824    2.75592974
    8   -5.39039168   -5.80170189   -6.48548669      1.52491804    0.16726310   -0.22226861      3.86568015    1.69799219   -3.67906962
    1   -4.53262967   -6.18482176   -6.15299661     -1.01137834    0.16598107   -0.01162776     17.10759783   -7.00421593   -0.11815433
    1   -5.11101694   -4.87902329   -6.68960226     -0.70375260   -0.33264007    0.39523816     -3.69821400  -17.32896634   -0.35008908
    8   -2.39603005    3.90694156    4.68698337      0.80936220    2.82003834   -0.05880053      3.17554073    2.24006765   -6.02058972
    1   -2.72111277    3.14110308    5.08780868     -0.78574578   -1.84524859    1.12265776      8.54569120   13.07545225    5.94201782
    1   -2.36850924    4.56196756    5.44360364     -0.03462649   -1.22035547   -0.94426085     -6.11012745   12.72277797  -10.01346018
    8   -6.65680388   -6.15169511    0.99438064     -0.03305236   -0.72713549   -0.22494838      5.52488323    0.63018154    3.88427964
    1   -6.68562715   -5.33072236    1.46019920     -0.19279659    1.03017766    0.73337572     -3.37729117   31.40165390    1.97806986
    1   -6.17869323   -5.90040955    0.20509129      0.32569374   -0.19025970   -0.44406761     33.36132056   14.41434387    1.60903516
    8   -3.18601769   -6.70495797   -5.13420707      0.50731082    0.48183788   -0.85964360     -0.42795299   -6.58797595   -0.08875187
    1   -2.26069600   -6.44354502   -5.36196049     -0.63902273   -0.29400080    0.24618666     44.76692813   17.92972099   11.28541440
    1   -3.13140479    6.73481049   -5.09992554      0.27334411    0.39996067    0.39470388     20.33521549   17.26397404  -12.35164743
    8   -2.27820592    0.98247584    0.70831187     -1.34741134   -0.71301299    0.09599068      4.99226210    1.74417204   -0.12573842
    1   -3.27010025    1.07593371    0.64746486      0.95429233    0.54943386    0.03100591     14.12018550   17.72102787  -16.36823372
    1   -2.21777288    0.00199906    0.75363154      0.55412614    0.59155746    0.00474793    -15.49580729  -20.00391343   -2.90843266
    8    4.72655006   -5.84001318   -0.32958382     -1.53819145    1.24232902    1.23350391      2.28940245   -7.66677303    0.93008821
    1    5.61008524   -5.57293457   -0.19169239      1.45851744    0.24533084    0.21770158     -4.62671429    9.46663188  -14.24347328
    1    4.81768002   -6.60862251   -0.83992539      0.08124579   -1.81633535   -1.14489640     -1.42176658  -29.27260816   21.11684438
    8    3.39677208   -2.62657308   -7.20525475      0.31997985    0.87115719   -0.24341312      2.36660282   -5.28038143    2.02524530
    1    2.95885078   -3.46429259   -7.10499878     -0.39397593   -0.97745766    0.17746981      2.94296943   17.54323322  -15.07863626
    1    3.06865676   -2.12290268   -6.43983735      0.06039873    0.17984648    0.24378145     -5.24145689   -3.46554258   10.13480078
    8    6.60364813    3.39652944    5.45300796     -0.49786500    3.02244584    0.22495485     -0.77918466   -2.33439166    0.60904840
    1    7.07794385    3.55520590    6.28899791     -0.07155834   -0.93038907   -0.43441303      6.46484801   40.18709347  -28.58816285
    1    6.74245293    2.50436963    5.20588437      0.69919673   -1.97379908    0.40108808     28.44869035  -23.67912398   20.84805732
    8   -4.44944004    4.51875353   -2.25135256      0.10308087   -0.75899037    0.19645247     -5.24043730   -3.39944757    3.70436894
    1   -4.00390068    4.65586115   -1.41527856      0.43217339    0.71763434    0.47668343    -10.58640260   -6.77241286   19.60542379
    1   -4.96601444    3.73159032   -1.97701324     -0.29381765   -0.00871204   -0.75802606    -21.67307122  -26.90800365   27.44749459
    8   -0.29457115    4.24806286   -3.60526083     -1.27867885    0.46316356   -1.47440197      1.82836429   -5.03544758   -5.36485809
    1   -0.27925840    3.90576776   -2.73846095      0.29498240   -0.63726554    1.71076464     26.35109998   -7.06692128   -6.87714904
    1    0.62922318    4.30021491   -3.81415629      1.10895493    0.10295558   -0.20132681     17.53664731   17.02805152   -4.90023826
    8    3.74573551   -3.57139839   -1.22652077     -0.72757651   -0.44851841    0.37264147      1.95282975    4.82445522    0.32469334
    1    3.87485960   -4.45210129   -0.79307411      0.17207625    0.49504489   -0.51071897      4.36596253    0.53209038   -6.73489723
    1    4.04904377   -2.95476923   -0.54529152      0.20260126    0.25663996    0.10808222    -14.91471642  -41.18069650    4.66369311
    8    6.25703094   -2.58072437   -5.43720061     -2.34134129   -0.85107858    0.89763679     -2.42331578    3.09199679    0.60166154
    1    5.43866818   -2.54116988   -4.82582949      2.08886204    0.12039872   -1.22524033     -1.20272167   29.48859234    6.36683084
    1    6.16213376   -3.48739589   -5.82299529      0.07600825    0.83815968    0.32011171     -0.44971772    0.45484269   -3.40367937
    8    2.18806404    5.24157465   -4.53505882      0.16945721    0.68991445    0.09331549     -0.58006559   -0.69948761    2.55745147
    1    1.60693845    5.50051933   -5.25003861     -0.77557227    0.12461072   -0.49193807      4.82214357   22.15236558   17.70897890
    1    2.87997491    4.79075147   -5.02809270      0.64701026   -0.66826125    0.31544527      6.11905877    0.25482059   13.55194247
    8    0.22071110   -5.10927667    2.11617237     -0.13164799    0.39542123    0.69369845      4.24473331    1.62518804    3.55867850
    1    0.05458242   -5.20963268    1.16810590      0.03200532   -0.19867614   -0.52745160    -13.61686200  -27.54333878  -38.89839776
    1    1.19155059   -5.14360351    2.19124937     -0.05842791   -0.30145103   -0.30405141    -24.40997776    6.99606660   19.70251402
    8   -5.24492419    0.50865273   -7.13073119      1.89297894   -0.91360726   -1.17181640     -0.77914897    2.25069943   -1.94841786
    1   -5.88120350    0.70386266   -6.45764908     -0.79722811   -0.05820318    1.41702967    -11.39301912   -8.23597735    2.68067033
    1   -4.52841525   -0.01200406   -6.66570157     -1.12597559    0.74659703   -0.23422822    -17.69536095   -0.84450509  -14.07920762
    8    1.50428508   -0.04313331    0.73257747     -0.29473295   -0.94241660   -0.93781810     -1.87413985  -11.60925476   -1.81810637
    1    1.42058048    0.89000646    0.96553603     -0.00847204   -0.00366999    0.81268199     -1.42218779  -14.47755258    9.97144315
    1    1.04591367   -0.56202559    1.42609544      0.08462329    0.72581855    0.24609071      7.87394063   26.59679009   -1.66327394
    8    7.12855101    0.79986954    5.42537018      0.45599883    0.24667933   -0.05678651     -0.64894181    2.07118942   -4.10436394
    1   -6.55705268    0.59804743    6.02883109      0.19063271   -0.02632779    0.11363125      0.63080019  -18.88714936   -4.10508562
    1    6.37753747    0.40413575    5.87970558     -0.44352732   -0.51048205    0.09150533    -17.77065067   14.56927194   -1.77383849
    8    2.48329311    0.20333385    5.07904019     -0.65459675    1.24557545   -1.50912580     -0.99795573    2.51508661   -1.66147012
    1    2.13707553    0.97984222    4.54479208      0.55766096   -1.23268980    0.92483815     18.49274165   20.49458398   -4.19845619
    1    2.63847343    0.58550541    5.94502834     -0.03218719    0.45546326    0.45559909    -35.60481747   -4.16128278  -15.43388402
    8    4.92070633    1.52971619   -2.45064464     -0.97957417   -1.89934089    1.20534812     12.70973073   -6.21578751    3.53475168
    1    4.29252273    0.92286122   -1.95057669      0.61071402    1.40054329   -0.89389682    -27.24677588  -11.46543860   15.13044237
    1    5.63294192    0.87688354   -2.61089756      0.14588962    0.53078523   -0.34797490    -17.71636407    1.79842185   23.38511687
    8    2.33110176   -1.16594012   -5.15304783     -1.97426464    0.37114416    0.44914682     -4.44048728    2.46437248    1.07987711
    1    1.58522399   -0.50517029   -5.12716656      1.48288632   -0.58327123   -0.25210982    -20.80705273    3.51745715  -25.29705655
    1    1.93039214   -1.88430858   -4.62102418      0.53219614    0.17909623    0.00413243     23.12172308  -21.34279470   27.19134141
    8    3.07640189   -0.38111665   -1.41166792     -2.13347673    1.28504336    0.36861524      0.67024377    5.40570403    7.81208870
    1    2.35051072   -0.18435920   -0.73171325      1.38551954   -0.40229119   -1.04196334     -5.85680375    4.83386458    0.28783521
    1    3.79828185   -0.66429219   -0.84786887      0.67862582   -0.61917698    0.61050077     -2.82434755    5.87333210    8.91054794
    8   -6.29947781    3.51011151    2.33029258     -0.49038630   -0.19006276    0.27357734     -2.67443403    1.82029565   -3.48357054
    1   -7.15622351    3.56082991    1.92497425     -0.55736815   -0.68574430   -1.24496135      2.41511914   17.74742693    8.40776695
    1   -6.43868462    4.21337171    2.94524349      0.96890606    0.96458728    0.94983547    -28.25320402   20.49497503   -2.63785846
    8    0.45384517    2.28548227    3.88552946      0.96294426   -0.12689192   -1.89211041      9.73504110   -0.06484444    0.84546916
    1   -0.46278722    2.12461591    3.97692709     -1.33434425   -0.21662728    0.34527766     14.95868056    8.05334290   28.37657798
    1    0.53353453    2.32224707    2.88773212      0.22304129    0.18175092    1.50105552    -17.03188731   13.73586632  -35.28503414
    8   -7.16198521    5.47183119   -0.25089111      0.70192038    0.23326343   -0.06441151      1.75498765   -3.57990397    4.84165905
    1   -7.11382776    6.18475703    0.36763117     -0.65474294    0.99204033    0.48433563      7.94312224   -3.19819413   -1.42836567
    1   -6.23661230    5.22709246   -0.24806937      0.53504892   -0.56177850   -0.54022810     -1.56854360   -5.41870926   21.10654439
    8    1.01217219    4.61504560    5.01256049     -0.46470403    1.57241863   -1.71644540     -0.38190931    1.33773563   -4.33641942
    1    0.68901867    3.79762600    4.64742259      0.00208856   -1.56826097    0.34884028     21.25925068   10.27569833   25.76511470
    1    0.84561516    5.16227761    4.18912687      0.86891044    0.19439429    1.53435135     -4.39393893    5.64635431    8.38959187
    8   -6.18635644    6.25380937    2.90671804     -0.48867124    0.20714659   -1.88437400     -2.99568537    5.13670908   -1.50876779
    1   -6.00817279    6.60371227    3.76666271      0.25082157    0.94856464    0.88369721    -12.93127496   27.85935586    6.58022590
    1   -6.31976004    7.04945787    2.30964186      0.24636683   -0.96719930    1.11498435    -25.16861551   18.02258309   49.96729132
    8   -2.95797886   -0.59750019   -5.81734764     -0.52178185    0.77292745   -0.36896471      1.71129365   -1.33874752   -5.28445526
    1   -2.67895698   -0.66797703   -4.88222144      0.42402201   -0.47994795   -0.32185803     -4.33949248    9.55187566   -2.73311016
    1   -2.40176328   -1.22962583   -6.32242593      0.07615801   -0.24732750    0.59100506     23.78596572    8.87205151  -19.88057822
    8    4.18508143    6.11354626   -1.86541175     -0.83897551    1.97146147    1.84246928      4.38386990    1.33631969    0.11990159
    1    3.81808742    6.21520553   -2.73262421      0.12985178   -0.73352358   -1.01150720      9.28096961   -1.52893955   28.38215318
    1    4.74726998    5.36386019   -1.86353790      0.79545960   -1.18689610   -0.88828409     15.40323720   -7.03637560   14.31956667
    8    6.60630509   -0.56299930   -2.87119368     -0.51125637   -1.61168211    0.35643191     -1.09251557   -3.65502986    0.86744118
    1    5.92463726   -1.20911806   -3.19279107      0.31039455    0.77460198    0.13387549     -4.95484315   21.87844101  -43.86597346
    1    7.01984453   -1.10449083   -2.16868589      0.15816699    0.60333403   -0.24350961    -16.10718807   15.59335492   26.84472095
    8    2.07884824    2.46453481   -3.10736590      2.12550486   -0.57785143    1.44393177     10.65022356   -1.83299773   -6.44602891
    1    1.64180671    2.79754425   -2.29979555     -0.60809564    0.40567720   -0.30805943    -10.82184460  -25.49053911   -7.52177877
    1    2.92755940    2.15190584   -2.69381070     -0.89260957    0.29751932   -1.32066982      2.02022695    3.06261478   23.31827309
    8   -2.18956274   -1.67041782    1.00786134     -1.00269190    0.21734295    0.98997750      2.98120601   -1.89519571    3.68408739
    1   -2.44285668   -2.48703024    0.61586328      0.27011588   -1.36211770   -1.49784972     11.21222926   -0.14187539    6.15392524
    1   -2.97501354   -1.58969987    1.57594323      0.39017979    0.77844787    0.27585467     15.21694703   -9.72570362    5.03340842
    8   -5.54705060   -2.99398794   -6.25892125      1.47498875   -0.44662876   -0.90464486     -3.86744906    8.90755827    1.91247706
    1   -5.06719082   -2.45444679   -5.62999382     -0.17995391    0.06531431    0.31192278     -6.64527274    1.54962310  -19.43364971
    1   -6.44987461   -2.72957480   -6.16571156     -1.10003942    0.42921179    0.58282179    -14.73528478   -2.08359574    4.35826588
    8    1.44674091   -2.47487614   -2.80007320      1.01174666   -0.53609541    1.51651795      2.88258182    1.39991070    4.33204514
    1    1.00609224   -1.72801020   -2.37338789     -0.44837409    0.17685219   -0.14006076      0.87419428    3.02328668   -0.64766164
    1    1.96109324   -2.82234868   -2.01516820     -0.56906797    0.18429722   -1.55525535     -7.80171668  -28.41186952  -29.59795377
    8   -1.00164042   -4.63493812    5.77990193      1.02601907   -0.34459935   -0.92554187     -9.14416484    3.88707369   -2.18926357
    1   -0.91123356   -5.58663131    5.61306805     -0.14794533    0.45949026    0.12001399     24.96913556   -1.33433679   -6.68812379
    1   -0.20387408   -4.25992784    5.31822982     -0.76846226   -0.50408092    0.55713963     -5.32673749    5.66959118   -5.98166958
    8   -4.12707939   -1.91348858    5.47266971      0.90325013   -0.64280123   -1.20968226     -2.77120921    2.60366179   -1.17569495
    1   -3.20752733   -2.17676321    5.71106274     -0.76542025    0.38389802    0.31610600      1.06818760   36.09439517  -15.81838136
    1   -4.54151163   -1.71075529    6.30395413     -0.08694410    0.00905979    0.65574730     16.06666481  -16.70434147  -26.11315037
    8   -4.64432330    0.84022641   -3.34040391     -0.87019467   -1.89049872    1.33243841      5.27160358    1.45713357   -1.11912813
    1   -3.70497308    1.00797045   -3.40044157      0.60775338    0.13296267    0.02966408    -10.28923302  -25.56563183    3.15705566
    1   -4.69936259    0.11216379   -2.61895281      0.14604618    1.54286136   -1.52130283     29.90094319  -14.67290972   -2.77530908
    8   -2.29262841    5.06401300    2.26127048     -0.40173188   -3.54747005   -2.08140011     -3.56780807   -0.14466862    2.80108491
    1   -2.43503122    4.58996617    3.10459353      0.12910486    0.57047755    0.48541338      0.73917284   -8.59756926  -18.75153811
    1   -2.18300051    5.94396006    2.47458353      0.37756665    2.84873835    1.46950380    -17.81927255    6.26797914  -11.88813284
    8    3.58844639    5.19505728    5.82013720     -0.98500385   -0.47855391    0.36370442     -1.16882026   -0.26458547   -0.61502331
    1    4.19132460    5.39984933    5.08051720     -0.14475810   -0.46513711   -0.32642587    -41.79323550  -15.45023946   13.75069443
    1    2.80325984    4.72229436    5.41047580      1.14643594    0.89735033    0.20359211     -2.09966501  -13.96900427  -20.97154589
    8    0.86647898    3.67598440   -1.13212307      0.41500324    0.62060279    1.36880914      1.49717026    5.76816714    4.09912277
    1    1.34564612    4.41651584   -0.70664987     -0.05378406    0.05634838   -0.82224912    -10.84575887  -11.26090570  -12.86424206
    1    0.47984262    3.29584641   -0.33424245     -0.61478623   -0.54059352    0.01459525      8.46201093   -6.19591626   -0.56361204
    8   -1.39620906   -3.87295957   -4.17263959     -0.17769628    0.14609461   -0.02652911      0.87938457  -11.55294366    7.65193790
    1   -0.83101135   -3.10972692   -4.13999606      0.22906485    0.48711662    0.24587956     -7.89265111    8.13809297   14.11790097
    1   -0.88206463   -4.47175216   -4.71142469      0.10116547   -0.63065326   -0.25915000     -7.01986956    0.39878607   -4.04003587
    8   -4.90787386    3.52908591   -5.61024443      2.12407609    0.89834808    1.46489103     -4.17658003    0.46169496    0.81963289
    1   -4.31458858    2.76325654   -5.42816910     -0.52066456    0.72473465   -0.18767153     -9.24025465    0.63144802   -6.16938357
    1   -4.40605566    4.27958051   -5.15056919     -1.34739973   -1.69409385   -1.23279791     25.61802958   15.18575235    1.15853821
    8    0.93906999   -1.57693347    6.46657780     -0.63061769   -0.56391092    0.66458068      2.08114641   -0.66156430    2.05041740
    1    1.80337963   -1.98129155    6.67445248     -0.19814894    0.41458984   -0.42757107      4.59572721  -16.44699668   23.47085041
    1    1.06359425   -1.15557717    5.61004762      0.47873868    0.21579571   -0.03896367     18.90129810   12.48421388  -12.52747033
    8    4.25730182   -4.28437160    3.92542869     -1.26985793   -1.05944485   -0.95816645     -3.38314405   -2.02736082   -1.46166908
    1    4.94629878   -4.30982328    4.54898425      1.61997405   -0.00743390    1.22353113    -22.85041272  -10.14711853    8.67157813
    1    4.07909671   -3.34783446    3.83166955     -0.05422053    1.04369439   -0.12652539    -10.33295811   -4.86924858  -12.47414532
    8   -7.08094949   -6.07012804   -4.20570848     -0.93211720   -0.03872107    0.58604865      4.23700055    2.45987610    2.89254720
    1   -6.87135511   -6.98427385   -3.84432662      0.31737438    0.81164937   -0.73713853    -43.26637201   -7.31627430    7.92524788
    1   -6.65723221   -6.02174899   -5.07393240      0.56771582   -0.46625190   -0.09932133     -7.13214155  -16.05354226  -11.99662566
    8    0.20312288   -1.89853097    2.41906681      0.46363162   -1.53078119   -0.14614653     -6.67720946   -1.06194993   -1.00142488
    1   -0.60072819   -1.94467472    1.85576431      0.28336604   -0.08957163    0.47904349    -14.84533379   17.85457528  -12.21239520
    1    0.45263226   -2.85847120    2.57127197     -0.76602789    1.67433043   -0.37339794     16.76588955   -5.14741248  -27.42068826
    8    5.86929911    3.50060154    0.52483402     -0.13570036   -2.27155832    0.73558663      1.85935879    1.40092069   -4.81985891
    1    5.11312361    4.03278240    0.76248439     -0.44049829    0.77009936    0.03046811     19.32898220  -13.22323616  -38.31903720
    1    6.45172121    4.09298892    0.02956870     -0.03633112    1.00173884   -0.23733806      3.21409824   21.11334740    4.80739766
    8   -1.29878774    6.86227373   -2.25653788      0.34016441    0.89403392    1.59824729     -1.99033327    3.59761638   -1.54764147
    1   -0.45901872    7.08435058   -2.70267698      0.12075306   -0.00803033   -0.13940212      0.88380276   19.43719825    6.50294581
    1   -1.74939436    6.33496299   -2.88180863     -0.53996448   -0.76451701   -1.27504113     -7.44022926  -16.81009471  -14.90858097
    8    4.36901962   -2.12108058   -3.34217909     -0.20741796    1.66854337   -2.29215484     -8.08683157    5.26195097   -0.39556886
    1    4.05743614   -2.50264143   -2.53588714     -0.32221875   -0.76000154    1.36145605     -0.41434236   -6.34004823  -14.33437333
    1    3.63563656   -1.48073116   -3.56678954      1.01510660   -0.88391697    0.33953468     27.48739067  -10.42051582   -1.81886182
    8   -6.05917195    0.94608772    3.12628728      0.02173763    1.77890666   -0.21939760      1.81276946    0.18352312   -1.04977022
    1   -6.03342469    1.95742318    2.99739901     -0.07146401   -1.92985165    0.28315435     26.23270618  -10.96282104   -0.63929028
    1   -6.44353983    0.83597536    4.03546437      0.01255814    0.22740817   -0.61597929    -11.77208720  -18.97793488   16.98632769
    8    3.47261232    4.62245846    1.82882478     -0.30269227    2.14195387    0.28626530     -5.48871740    4.19880154    0.04915612
    1    2.86218441    5.29183959    1.38843931      0.96413630   -1.27627383    0.79533044      1.74463028    8.35902318    1.75343027
    1    3.70980482    5.07281126    2.68831917     -0.30181141   -0.73408393   -1.38278511      5.88674227  -13.33267769   -0.23593765
    8    1.84234122   -4.92246815   -7.01786285      0.63510178   -0.35109717   -1.32344640     -0.39129573    1.64582572    1.56946904
    1    2.45740780   -5.70311186   -7.01999165     -0.59766736    0.73599372   -0.32176354     19.21553181   -7.37160037   -8.08813241
    1    1.72884836   -4.69014724    6.41144466      0.14895299   -0.50202596    1.94415150     -9.30189199    1.94478632   -6.51879962
    8   -4.45718293    4.89416874    0.54680548      1.72036408    0.16573020    0.91106934      3.88875682    2.41802229   -3.19895254
    1   -3.58308532    4.88604344    1.04690256     -1.19368424    0.05515363   -0.94398490     17.83634894  -24.48881082    3.47126430
    1   -5.06744040    4.80785215    1.28548744     -0.40940932   -0.25540107    0.11315509     12.99731690    7.49654749   10.44954115
    8    2.84598022   -5.00292543   -3.85693578     -1.35061406   -1.46651330    1.00075414     -1.70280040    1.25343398   -9.18618224
    1    3.06446440   -4.19845127   -3.41047578      0.62654032    0.99608787    0.03649074      1.53416711   -9.31680798  -37.31247765
    1    3.30258592   -5.00464942   -4.66489417      1.05393817    0.73315861   -1.21574058     10.88689069    4.87849397   32.75214909
    8   -1.48580105   -0.33979538   -3.34217986      0.61235021   -1.00918025    0.50714387      5.47443756   -6.68387197    0.69304276
    1   -1.30045150   -0.74348562   -2.43670114      0.05578586    0.92394636   -1.53756046    -11.86383666    0.24612713    7.46507137
    1   -0.57613797   -0.12825659   -3.67494306     -1.05734147    0.26431746    0.44616749    -11.37360737   13.24906135   -0.40746956
    8    6.90115431    3.10044909   -5.56312770     -1.04628990   -0.47795457    0.23017117     -3.42561399   -3.42985582    5.39904218
    1    6.96232791    2.13237264   -5.34867559     -0.26577120    0.51770082   -0.16504490    -18.96853956    6.62385539  -17.53655214
    1   -6.59618864    3.28380449   -5.74485348      1.00906996    0.62988293   -0.09428529     18.10623572  -14.13845004   -8.31821787
    8    6.85926782   -2.35827056    4.59779981      0.87390230   -2.44622814   -0.09194037     -2.21904550    6.11266145    0.34448456
    1    6.92595687   -3.08853320    5.26242866     -0.16089138    0.21308519   -1.10501394    -19.58262803  -16.44698897    5.32950682
    1    6.65663450   -1.65545942    5.16438173     -0.68910596    1.86585520    0.84542514    -50.45106830  -18.12019969    2.19503373
    8   -2.58237960    5.34959679   -4.25581556     -1.90603062   -1.43067824    1.44413198     -4.89009921   -1.99068321   -3.52684356
    1   -1.82562367    4.76511141   -4.00765820      0.08608785    0.17544713   -0.13039204    -16.71051691    7.20430419   -7.67527004
    1   -3.30025335    5.06518377   -3.59076191      1.55183983    0.52654353   -1.20885127    -10.74750397    1.53462297   16.98220468
    8   -2.96926268    1.58872751    6.36984052      0.63219755   -0.64311927    1.41615537     -3.85671984    4.27109771   -3.33378409