 BEGIN_INFO
   #
   # This is a XCRYSDEN-Structure-File
   # aimed for Visualization of Fermi Surface
   #
   # Case: Tight-binding calculation
   #
   # Launch as: xcrysden --xsf HICOLM.XSF
   #
 END_INFO
 # estrutura final
CRYSTAL
PRIMVEC
      14.32738715       0.00000000       0.00000000
       0.00000000      14.32738715       0.00000000
       0.00000000       0.00000000      14.32738715
PRIMCOORD
  300    1
    8   -4.73921830   -6.83941456   -2.25287369     -0.19099062    1.40883365    1.07893606     -1.58071547    1.46278420   17.03043320
    1   -4.93054270    6.87352746   -2.94554056     -0.44282789   -1.21034793   -1.12293342    -17.62780028   24.80332269    6.23671980
    1   -4.59416968    6.89407810   -1.50066747      0.07082365   -0.36825903    0.44259684    -11.19989706   12.56065527   -2.56332074
    8   -1.34519406   -7.06500828    6.40782871      0.28884156    0.24255174    0.55536610      0.54439965   -2.88324373    0.72281483
    1   -1.08389406    6.51274389    5.87772836      0.05465564   -0.33948465   -0.28260917     -5.40369380   16.43412569  -15.61659314
    1   -0.82652336    7.13815233   -7.09756008     -0.29501115   -0.12069443    0.03791544      3.57447155   14.85060644   -4.77958272
    8   -0.43790967    1.88278767    0.01646331      0.72922865    0.08267174    0.51515765      0.83059708   -7.72362598    0.87773053
    1   -0.07657114    2.10055402    0.88890449      0.06898373   -0.13923168   -0.01970618    -34.16211916    9.33530376  -19.07663887
    1   -1.36738147    1.75753909    0.20942564     -0.53131759   -0.22977687   -0.06660356     12.10982044   13.94026045   -3.69798308
    8    3.77359845   -2.37027089    3.23545208      2.20997222    0.77237168   -0.75317163     -2.08033761   -3.93407375   -0.21958054
    1    3.58163171   -1.46275019    2.88911078     -0.53460296   -0.83315524    0.55311895      7.24532739    3.55495409  -26.50222639
    1    2.93262825   -2.77137006    3.42065058     -1.34915700   -0.12933093    0.16182970      1.20203971  -22.03833378   10.48155514
    8   -2.25020608    4.34232166    0.53127790      2.35090063   -2.02633845   -2.98831187      5.23628141    7.40230211   -4.41319079
    1   -1.59803350    4.23895832   -0.25490868     -1.63774747    0.92944588    2.07316520     -4.73503290  -21.44383529    7.09190484
    1   -2.54758508    3.38628415    0.55086192     -0.42655310    1.20973575    0.83331219    -15.80912169    1.92603333   -6.62879802
    8   -0.50022588    5.04602703    2.51638268     -0.42110036   -0.89311508   -0.52146639     -0.39304817    3.86266357   -0.42289914
    1   -1.35650089    4.98101715    2.02396155      0.76923742    0.04081017    0.14430658    -12.62968691    0.15196213   10.07138216
    1   -0.28177824    4.09004622    2.63584599      0.07320178    0.68180768   -0.17976463    -20.37840407   16.90136162    4.12875073
    8   -6.59738325   -4.39389560   -3.67919471      0.56170468   -0.32955663   -0.52016587      0.89690789   -0.59478634   -1.32107666
    1    7.01282213   -3.81263791   -3.35962845      0.37858672    0.24729262    0.28082467     -3.41744465  -11.71263086   14.90701049
    1   -5.78556577   -3.86454708   -3.56161161     -0.72160256   -0.20237007    0.19895396     -5.74981010   -8.25294876    1.53129302
    8   -1.34191803   -2.66292303   -5.29659754     -0.35623150    0.02641589   -0.18372909      0.03817481    5.20666469    1.52435722
    1   -0.48130151   -3.08890173   -5.31838256      0.40620364   -0.21587091    0.04868253    -14.43549418    1.18791661   -3.49636624
    1   -1.66095050   -2.83368463   -6.19675235     -0.04233872    0.06504977    0.22365910     -0.69551133   37.17811342    1.72379487
    8   -3.24381751   -5.33776958   -3.70605664     -0.28520389    0.20602145    0.84705633     -5.39625746   -1.08593019    1.25876076
    1   -3.95774258   -5.93403294   -3.36488252      0.49188878    0.45165443    0.33991432      8.54837626   22.50071002    6.18839029
    1   -3.09677048   -5.68581396   -4.56436297      0.30389072   -0.43706059   -1.19023216     14.24021786   22.21414309  -11.23682870
    8   -2.00501766    3.08227122   -2.16507647     -1.67110384   -1.71032019    0.04829691     -2.44973171   -5.54080199  -10.89496390
    1   -2.02190966    3.72804136   -2.85662125      0.18242259    0.99176876   -0.81017957    -31.97884134   15.13934166  -15.27778208
    1   -2.73099890    2.45653752   -2.46440746      1.29214787    0.96797156    0.63857676     17.42808851    4.79195138    7.50449407
    8   -0.69428839   -2.98764265    0.06496266      1.00772071   -0.70213016    0.56752799     -0.74259695   -4.51625277   -2.88172154
    1   -1.19269471   -2.17356918   -0.02674654     -0.57172900    0.45805756   -0.60608267     20.29737652   -8.27324934    5.65475442
    1   -0.67613111   -3.39040376   -0.81243449     -0.28338550    0.37301002   -0.09473002      0.46453347   34.48042256   -2.49575985
    8   -5.22924693   -0.84236235   -4.40840026     -0.44652517    1.04657699    0.41081754      5.09573284    8.93560393   -0.60240291
    1   -5.51581699   -1.14720934   -5.28535417     -0.01254055   -0.40686289    0.17414566     -8.64917402  -14.71942992   13.48325877
    1   -4.85022958   -1.63103942   -3.97311864      0.33905489   -0.02918278   -0.51041960      5.12945790   -1.49062308   11.85590095
    8    2.97148729    5.70200582    5.07343666      0.00057441   -1.69790265   -0.14362674      1.63876880   -0.75644079    1.05722483
    1    3.65016868    5.75979594    5.83453017     -1.56977855    1.66843825   -1.27380834     -2.35428607  -12.98064848   -7.09982908
    1    2.51319313    6.56627973    4.93959649      1.14978194    0.23501711    1.06863285      1.95056291    0.24488540   11.29232092
    8    3.74789938   -4.40267754    1.16532123     -0.75971460   -0.16141006    0.36877817      2.47537801   -4.01812236    0.59288411
    1    2.94842704   -4.75808198    1.53070753     -0.67137159   -1.24933863   -0.80421313    -14.31110679   -9.38727361  -13.78666656
    1    3.89293902   -3.82387564    1.89467020      1.50929918    1.33298458    0.43424557     -2.41144534  -20.19900094   -3.70079993
    8    2.13770819   -0.33493641   -6.45187154     -0.21017579    0.61239223   -0.63218020     -1.62069991    3.61573704   -1.42010349
    1    2.73613603   -0.98775298   -6.09620240      0.45886393   -0.13111229   -0.01992701     -2.63924848   -3.06387943  -11.02139747
    1    2.55944907   -0.07968319    7.00389085     -0.40061102   -0.57610441    1.00157799     26.48503535   36.92445878    9.65382880
    8   -3.45492154   -3.11103228    3.30890333      0.53259411   -0.22382516   -0.55531083      0.35268334   -4.14208601   -6.31826103
    1   -3.77690945   -2.50246662    3.98107848     -0.54815905    0.02854069   -0.30495723      7.23589519   22.31999145   -2.17992213
    1   -3.91185950   -2.88460960    2.46919719     -0.20513524    0.22678165    0.63620257     11.06044665   10.28760119   26.72607394
    8    6.35328778   -4.14198903    5.51476771      0.98467908   -0.24540328    0.53513210      0.33512019   -0.85357305   -2.11244766
    1    6.99356570   -4.44811573    6.18182323     -0.30715964    0.40344571   -0.24031487     27.46665191    5.48704416    5.92406968
    1    6.06844874   -4.98738606    5.14300992     -0.76627579   -0.08704340   -0.36534481    -24.59617870    8.07195224    7.60037130
    8   -4.65399862   -2.54865045    0.83000707      1.07172093   -1.60755444   -0.78210937      4.58746883    2.56983117    1.57769108
    1   -5.40463940   -1.97035067    0.87409931     -0.92065199    0.95066398    0.19946621      6.15940539    6.39436883  -13.04461548
    1   -4.95854815   -3.22176058    0.17452619      0.08794252    0.39884818    0.59008333    -24.91766383    3.97804818  -13.17548429
    8    1.67956141   -6.24346700    4.82241488      0.12843828   -2.00556630    0.83170770      0.80673231    3.11084935    4.12101733
    1    0.75948505   -6.45234054    5.03257176     -0.00473158    0.43223112   -0.17031355     -4.51856964   13.21180862   11.30056156
    1    1.63321765   -5.40223448    4.40608184     -0.13179336    1.54239110   -0.59025077     -0.12871406   -9.61728114  -15.66521038
    8    1.39190818    2.34809856    5.46129880     -0.60170653    0.46192190   -0.50044128      0.84698498    0.86146328    5.85862506
    1    1.85658236    2.57060660    6.26658512      0.40220971   -0.03625415    0.42260111    -10.06453541    8.47677026   -5.72632841
    1    1.03428488    3.21720258    5.17091072      0.10442715   -0.44171350    0.39726439    -19.29865312   15.18105261    5.83679903
    8    5.95675579   -6.12491332    0.71835934     -0.40161184   -0.97807538   -1.16884300      4.18458266    5.68798955   -1.06531245
    1    5.70251564   -6.81392433    0.04877363      0.29972756    0.64248094    0.56685305    -13.75002964   -6.92570548   -3.10497109
    1    5.10266137   -5.68363328    0.86251165      0.17404762    0.28123451    0.33864482     22.15459589  -10.80908465   21.71246333
    8   -0.82943701   -2.51232505    3.55138062      0.46767832    1.53649330    0.35881790     -5.29429396   -0.17401248    2.49898147
    1   -1.73595347   -2.75824416    3.32034171     -0.43939970   -0.17771042   -0.02523641     21.59093689    9.74620530  -17.82200527
    1   -0.87083147   -1.53407766    3.64232114     -0.10741200   -1.09756384   -0.10203235    -12.44419997   12.49473207    9.66893310
    8    6.39448180    2.45998606   -5.54523941      1.07838517   -0.42874601   -0.73487495      3.50891937    1.05911549    1.16835954
    1    7.03591655    2.33830663   -6.33162049     -1.23912518   -0.31125615    1.26178819     15.49099195   -0.96414802  -22.07054941
    1    6.16007097    1.53831266   -5.29705808     -0.03534241    0.33821121   -0.28587743     -5.59894004   30.69727785   15.84980651
    8    0.41978132    7.00793342    0.59681626     -0.89171415   -0.73871291    2.13974151      3.00364522   -3.92611934    3.54777393
    1    1.15407932    6.50383299    0.30105124      0.97145069   -0.39385650   -0.87089956      5.98319861   24.19642346   -2.92720657
    1    0.17151513    6.48214462    1.40997537     -0.10009719    0.78073741   -1.15358408      2.82921641  -11.24053816  -14.75823002
    8    4.99888994   -0.01476424   -4.71579969     -0.41866466   -0.58273336    1.41477025      7.52086943    3.17003346   -7.45431343
    1    5.38270126   -0.92411971   -4.82450002     -0.60654290    0.97895713   -0.30691195      1.80416345   -0.78526786  -22.29655207
    1    4.41672981   -0.14352049   -3.90500116      0.99856152    0.46448397   -1.11217311     -7.57388662  -11.82391575  -25.36875514
    8    3.47264351    6.87314311    1.78830893      1.63060345    1.52368412   -2.05496310     -6.08179691    0.68789064    2.19702709
    1    3.62387711    6.58406580    0.85106291     -0.19063779    0.29942550    1.21559020     15.08307158   14.08659489  -26.15363370
    1    2.94426982    6.21669276    2.11809334     -1.53109226   -1.97294251    0.89147127     10.52177233    1.15755811   15.28093045
    8   -0.91836792   -1.62750630   -2.66804991      0.41578725    0.73444942    1.92326963     -0.02760045   -3.94489233    0.72187507
    1   -1.03489748   -2.16113762   -3.39564401     -0.29473056   -1.31769588   -2.50538799     -2.96115490   -6.32688259   10.55749900
    1   -1.72370215   -1.78521158   -2.18342434     -0.61806660    0.32640326    0.37186983      6.76451952   17.41945291   32.93498194
    8   -4.39516373    5.68872639   -0.32719096     -1.12397496    0.37874767   -0.05165878      8.44518096    4.62108956    0.18914224
    1   -4.98814835    4.92272212   -0.13816190      0.30790571    0.16438026   -0.16528477     -2.17523494   -4.93735804   -0.80489390
    1   -3.52406288    5.28991177   -0.37652507      0.45681824   -0.46917686    0.43126046     24.03478491   -5.26412759  -12.15091242
    8   -2.18465329    3.95905983    4.87111707      1.51601545   -1.56710665    1.20398434      0.92370782   -0.00608730   -5.02627997
    1   -1.29442573    4.36185847    5.11264228     -1.27471204   -0.61166413   -0.57103712      0.18092932   14.30670053    0.92655874
    1   -2.68363384    4.67591157    4.56783525     -0.66117059    1.91650936   -0.69533193      6.60761213   15.81205215  -40.49328056
    8   -6.49194785   -0.77516174    1.57875287     -0.71193789   -0.45041062   -0.97358794     -6.59616930   -1.13233045   -4.83732129
    1   -6.92950310   -1.48922098    2.07922598     -0.07289377    0.15067565    0.34229928     17.63709219  -33.37924839  -11.46737921
    1   -5.95746100   -0.34650363    2.24861747      0.39548699    0.37960338    0.74982673      8.32938892   11.14953441  -24.64955546
    8    0.87238326   -2.81835009    6.99149702     -0.38879028    1.07410381   -0.33136164      0.17832361    0.41716961   -1.27791580
    1    0.53008581   -1.88267155    6.79061554      1.57102487   -1.83433131    0.30181520     -4.29701318   -0.40830414    1.04714593
    1    1.86136718   -2.79611800    6.92452639     -1.25328771    0.72006684   -0.20008464      0.86408441    3.77324187   49.07999702
    8   -4.88508138    2.76368960    3.25580594      1.16840858   -0.93016149    0.41029748      4.53168908   -0.29499353   -0.07484203
    1   -3.98510573    3.07897539    3.45208127     -0.49527896    0.31396653   -0.02851820     18.92201093   24.85100298    3.68172539
    1   -5.29509849    3.47024192    2.79303456     -0.36296804    1.36231998   -0.50011580     -5.06213196    3.12735043   29.40875196
    8    3.09937118   -0.21672975    5.37797867      0.18303391    0.39718530    0.25730652      4.39928839    2.54221425   -1.88248110
    1    3.01773205   -0.20643390    4.39267805     -0.09929203    0.21699861    0.39038266     16.86189842   42.04973085   28.96075567
    1    3.47919085    0.66795098    5.55757933      0.16254452   -0.28316881   -0.41629103    -13.61712339   -4.45252598  -25.56787567
    8    0.34308327    1.31834282   -4.76470161      1.20822744    0.29977649    1.70349858     -3.49838474   -1.28200585    0.71944609
    1    1.15906411    0.76851586   -4.89860699     -1.10725746    0.54676725    0.13834808     11.33847805   16.53232173  -12.62479818
    1    0.41425863    1.60583854   -3.79947184     -0.06644901   -0.76474658   -1.77038274      2.21504850  -13.36926742  -21.92467263
    8    4.06841461   -2.38521917    6.56956691      0.59183812   -1.58774251    0.12917285      4.54849770    0.57389965    3.02441364
    1    4.55692125   -2.88355825    5.89268199      0.09963732   -0.43014986    0.50509403    -17.71005734   -0.48070947    1.64540167
    1    3.81869791   -1.64369325    6.04625321     -0.77210077    1.67059560   -0.55979596     12.53797827   -1.24078222   26.83547706
    8    3.79453700   -0.54995710   -2.29929524     -0.40437072    0.66357957   -0.95853009      0.10977222   -1.58501684   -3.18936431
    1    2.79072259   -0.62234883   -2.40802311      1.43719905   -0.37368216    1.10702336      6.31151119  -16.08150012    0.63361113
    1    4.08122986   -1.11689434   -1.56573248     -1.25157653   -0.19315693   -0.12444432     -9.02086792  -10.89251805  -28.65608212
    8   -2.99135924   -5.51138276    0.37926028     -1.11447033   -0.08017566   -0.78361198     -4.82972847    0.47632902    2.27768655
    1   -3.84701162   -5.46879770   -0.09698783      0.73316843   -0.19171933    0.23213732     11.63451269  -10.99849487   -3.04330471
    1   -3.19677798   -5.02592853    1.16989333      0.26318478    0.29428770    0.70452779    -12.51790385   35.68491485   -0.86430904
    8   -3.97560715    1.55329418   -3.56604314      0.59050184   -0.59979090   -1.58064185     -1.72862220   -3.36602937    3.07833473
    1   -3.29633284    1.59000446   -4.27161788      0.03999678    0.52154770    0.41705303     10.82152429    5.15017450   -0.63929104
    1   -4.43585157    0.75320033   -3.87779394     -0.47642801   -0.11168654    0.30604745    -24.11819221   -7.45306941    7.60025888
    8   -5.99511561   -4.68932555   -0.61108204      1.10641662   -0.56392514   -0.78192703      2.29224675   -3.52339493    4.60133074
    1   -5.78532102   -5.41359993   -1.23287833      0.29548576    0.48680615    0.13449722     -1.26712500  -15.98789402   14.42431462
    1   -6.89336465   -4.89881477   -0.40815792     -1.03071304    0.05046888    0.72301353    -24.33455426  -21.47097464  -27.42414265
    8    0.28512098    4.86444462    5.04259824      2.01651309    0.82278128    1.80275394      2.88854447    1.34200020   -4.68574549
    1    0.19551453    5.09142988    4.13230403     -0.71184431    0.19035159   -1.71053822     18.41917296   -5.87159305    6.52444731
    1    1.17861089    5.26475544    5.22808416     -0.89982557   -0.73285973    0.13365179      3.23548005    9.07531158   14.00379950
    8    4.61440548   -6.07389069    4.46036654     -2.01215320   -1.29765758    0.10360061      0.65279749   -5.05937588    1.72491545
    1    4.50434071   -6.61569029    3.62576924     -0.02581181    0.88245050    1.36173039     -3.49417033    5.78465434   -3.32860214
    1    3.76958298   -6.26488603    5.00457569      2.25406019    0.48573431   -1.68819920     12.92800007   -4.76454211   -1.06499243
    8   -4.67711968    0.80848549   -1.17721029     -0.06434916   -0.36943063    1.17245633      2.58714753   -1.89461256   -9.84871133
    1   -5.57726560    0.49456751   -1.36300996     -0.14778407   -0.05150336    0.09491606    -10.51262914   -4.80578105  -19.94145460
    1   -4.30777979    0.86419093   -2.06180810      0.27736895    0.42518789   -0.54434369     24.42547822  -23.81785078   -7.13771311
    8   -3.23447868    1.95482145    0.94893564      2.09621570   -0.03890963   -3.36905615      6.67613184   -3.78302389   -1.40185194
    1   -3.76752801    1.68149433    0.14511932      0.02320571    0.10630148    1.34558163     13.49191328   30.64202698  -16.10074246
    1   -3.79052415    1.89988501    1.66113292     -2.32456657   -0.42750365    1.75695390      6.98791127   18.31948468   -4.63109157
    8    5.21775970    4.79147403   -5.15254569      0.97000888    2.50639412    0.87778325      4.00435643   -1.45393697   -5.25367031
    1    5.94698224    5.24133101   -4.63107944     -1.52063440   -0.63773563   -0.73967255     -1.97744687    8.60771888    0.34590005
    1    5.58031650    3.93049093   -5.29435927      0.46370713   -1.51860296   -0.17936074     -0.46372418   11.38643504   -3.62024115
    8    5.35459897   -2.48265884   -5.39778748      1.71994008   -0.27369167   -1.23043880     -1.72550635   -0.77602900   -6.74288924
    1    4.74858329   -2.51673976   -6.15254708     -0.76367476   -0.06112342   -0.08706170     34.64681022    4.88157129   -6.19400697
    1    6.20701934   -2.34892147   -5.92821577     -0.72478184   -0.13169276    1.35974276    -21.83141185   -2.68521102   -9.45081018
    8    3.77704203    2.26681472   -2.42929523     -1.13373607    0.75767421    0.20611665     -4.43021366    2.49892134   -4.40759971
    1    3.68191065    1.36350426   -2.12247315      0.14237786   -0.58202242   -0.07508611     -1.26218543   -7.88512665    8.88784021
    1    2.84391779    2.60257635   -2.36122442      0.86555963   -0.31568957   -0.12297254     -4.84169861    1.18409398   21.54467655
    8   -3.48238411   -2.69557215   -3.70775973      0.43579350    0.55774775   -0.40420235     -1.83650153    0.64229161    2.19022904
    1   -3.38498124   -3.60898562   -3.43592776     -0.05608118   -0.88532472    0.09482222      4.96701743  -25.31144518   42.09167761
    1   -2.73575327   -2.61122225   -4.35726717     -0.59475758    0.13984957    0.40676747    -18.65985829   34.05319292  -13.80399079
    8    1.56387507   -1.18794783    0.84014383     -0.02280424    0.51684704    0.52852451      1.87406689    2.68865360   -1.88441918
    1    1.93525782   -1.58176317    0.07789272      1.03404625   -0.34904382   -1.05241156     -4.44498615   15.99776307    1.44156370
    1    0.73243953   -1.63509182    0.85176227     -1.12443846   -0.38791239    0.46887925      1.17766616   -7.82784282   -2.69211634
    8    2.80554539    0.13571949    2.82959668      0.07112415    0.16092494   -0.65564496      1.36166961   -1.62637169    0.57844149
    1    2.16645765   -0.26232322    2.16444902      1.03778280    0.96303366    0.15110243     -9.90233042    1.57383502   -2.99687818
    1    3.28568841    0.87957491    2.36486732     -1.01092558   -1.19536078   -0.22401070     -2.01406883   -0.32221893  -20.74056108
    8   -0.03671736   -4.98114083    1.77473735      0.72322388   -0.40693779    0.80703979     -0.27367856    4.54440956    7.00881054
    1    0.10504057   -5.84752124    1.32349070     -0.25927727    0.65264547   -0.61814968      3.93103189  -20.46244613    0.64658196
    1   -0.19115258   -4.32054265    1.07735348     -0.28462834   -0.28120929   -0.49870319     -7.71966416   26.08259886   17.77765760
    8   -3.98484928    2.35373093    6.51985965      1.22191679    0.32398354    0.54845735     -0.15602213   -1.48822594   -5.02270610
    1   -3.26740733    2.66992539    5.94181610     -0.36158606    0.03413506   -0.14793378    -41.99919457   13.68484423   11.93375792
    1   -3.47691205    2.12804406   -6.99906618     -0.40217427   -0.07090934   -0.34357959     -5.34320789  -14.38980106  -13.74048849
    8    3.15743552    2.36327475   -6.31117204     -0.29169269    0.81377835   -0.99255278     -0.99472919   -3.54752113    1.66345617
    1    4.11191152    2.29470043   -6.50381137     -0.41522055   -0.19231941    0.67341006     24.37119731  -12.67518568    7.15083618
    1    3.06047099    2.20860238   -5.36920432      0.73851002   -0.28512922    0.24336161     19.48525947  -11.20194969   23.63598108
    8    4.63498755    6.42319277    6.91770921      0.71683108   -1.58032908    0.85858794     -5.52848876    5.75686337    4.49463849
    1    5.26878977    6.98112268   -6.93531343     -0.30640914    1.36436314   -0.37022569      6.24377486   -9.90815529    2.89682738
    1    4.88326670    5.58053867   -6.99214442     -0.54956282   -0.14354222   -0.23753207      1.82510160   -2.93867654    2.26138709
    8    4.95073903    6.41439575   -1.12333609      1.32836286   -1.96228052    1.19623452     -5.10973501    5.12442214    2.36964739
    1    5.03978344    5.40453720   -1.01692526      0.55264828    1.89804766   -0.20599770     -1.44242804  -18.97454075   17.79820059
    1    4.20284747    6.42422615   -1.68746333     -1.66361846    0.68538697   -0.88293263      7.99885371   19.85157475    3.55211817
    8    6.60623711   -2.39651118    3.39835112      0.84573597   -0.19226341    0.41945415     -2.69229337   -3.84069785   -2.68845777
    1    5.65391098   -2.35313855    3.17826091      0.02804578   -0.68938255    0.72708261      0.10332942   10.25859977   -6.12988660
    1    6.71662354   -3.10222015    4.10386577     -1.11977451    0.68420350   -0.97907549     -4.37221206   -0.21486632   23.58167126
    8    6.87415244    5.56538940    5.31053705      0.62546580   -1.57666753   -0.75030109      0.32760198   -1.20115281    0.01885205
    1    6.58735445    6.34742346    5.72901347     -0.72883395    1.34274253    0.22086393     -0.25833220  -18.36175498  -14.75446975
    1    6.60749612    5.67701499    4.36795937      0.01111582    0.19670063    0.59126140      7.77758319   22.43839074  -31.94093288
    8   -2.79272117    6.52489023    3.63442428     -0.79402081   -1.40030370   -0.85098141     -8.15994792   -5.39676885   -2.13440544
    1   -2.51716174    6.61283532    2.69933213      0.00420769    0.23798673    0.84780098      1.16721824    6.10620050  -10.45434914
    1   -2.53385196   -6.95928020    4.01352405      0.56246379    0.86555704    0.01375641     27.90814305    9.23400416   18.97643617
    8    6.34610856    5.94665250    2.66822098      1.97709510   -0.37332590   -0.37525923      2.35701884   -2.94344681    4.92856359
    1    6.24584160    6.46343094    1.84669000     -0.12153970    0.11297178    0.48407675     12.92019344   -8.19729993   15.34491631
    1   -6.97243799    5.82624161    2.71260866     -1.78213890    0.24096469   -0.11109377      7.60361463   19.64157301  -14.92458189
    8   -6.70861029   -0.76314409    5.41640909     -0.75541266   -0.03002831    2.09468890      2.17376560   -4.17439664   -0.64929119
    1   -6.02558180   -0.35099151    4.89093450      0.47732170   -0.06568881   -1.43746184    -27.80901507   -4.64372497   17.56567330
    1    7.14787021   -1.37805880    4.83394641      0.34261873    0.24900279   -0.75785732    -14.49020391  -43.16633750   -1.13136939
    8    1.10986599   -0.24776550   -2.13545465     -0.99752142   -1.07668976    0.48371722      2.11472917   -8.62194332    0.49258684
    1    0.33383678   -0.88578819   -2.39756697      1.47676861    1.76850034    0.67127734    -22.01457395  -16.88376416   -7.88014689
    1    0.86176618    0.04730227   -1.22787823      0.00051754   -0.19789396   -1.05924832    -12.92606242    7.31175331   -3.73792371
    8   -5.23283852    5.71270444    2.56206280     -0.89769736   -0.17738901   -1.03355345      5.20851099    1.85551987    2.59847083
    1   -5.06085513    6.05781080    1.64421966      0.47103874   -0.28213945    1.34141288    -34.66755772    1.77362958   26.38916642
    1   -4.46220248    5.94841718    3.10200823      0.36495205    0.43783236   -0.46415585    -16.35295193   11.81655050  -21.56398591
    8   -5.20753500    5.61967707   -4.06590514      0.59203264    1.08121066   -1.45004350     -4.07488919   -5.78270609   -4.76221313
    1   -5.54119651    5.63504404   -5.00502690      0.31215012   -0.47020189    1.24683704      5.13995273  -16.49656107  -12.99073723
    1   -5.64656786    4.87254293   -3.64784191     -0.65651031   -0.49485474   -0.22276690     30.53325912  -11.36531591   -7.90228235
    8    0.73336569   -4.78718543   -4.77489886     -2.11317683   -0.12854152    0.07828225     -0.62227826   -3.81084878   -2.47305323
    1    0.83094095   -4.52590564   -3.82823188      1.10216924   -0.27289167   -0.82803109     -8.77505696   -0.29041898   12.51518177
    1    1.57322131   -4.75182257   -5.21885859      0.99365474    0.37557111    0.71583928      2.12879171   17.71640967   -8.02158642
    8   -5.50786593    5.23097837   -6.98087685      1.54925145   -0.25514729    0.01457762      2.28506403   -1.41454806   -2.07732634
    1   -4.90294403    4.78321346    6.72589520     -0.16114388    0.11098296    0.60132129      3.74569660  -14.59593967   11.25419423
    1   -6.32723564    5.09016178    6.90362651     -1.33185479    0.04381301   -0.57145627     20.23507627   -9.30258343  -13.34219259
    8   -5.01302204    0.25282457    3.60186969      1.21650557    1.02764546   -0.42089602     -3.31427184    5.81105214   -0.88331384
    1   -4.09580679    0.06881259    3.88713223     -0.38997240   -0.48052251    0.42630779     -0.42092980    3.46213159  -13.95596233
    1   -4.91830363    1.24524934    3.45117030     -1.00644874   -0.93489245    0.22428368     15.69559668    0.49990698   -7.83758372
    8   -3.63324026   -2.83849317    6.31863681      2.79704820   -0.25880502   -0.45421029     -2.09823830   -1.74272192    0.68861760
    1   -4.24408052   -3.36629565    6.77073383     -2.34680658   -0.75865741    0.82072664      2.25445400   -6.65548343  -14.69444739
    1   -2.85887956   -3.47509770    6.42855846     -0.42331378    1.48101505   -0.78874947     18.46067341  -24.55205525  -32.17136681
    8   -0.13190889    5.64896035   -2.09083432     -0.25302905    1.32864540    3.49653914     -1.54842826    0.44611950    0.77447009
    1   -0.41332002    5.59496342   -2.96619093     -1.19941539    0.06945645   -1.98888015     -7.37770676   12.29713771   -4.68296020
    1   -0.82118284    6.23807479   -1.62275695      1.69206318   -1.32198181   -1.50859155     -1.31071313    0.49005575   -3.41340561
    8   -2.12142132    5.08712827   -4.14183609      0.78138501   -0.99214354    0.98006166     -3.40840453    0.10974482   11.85482072
    1   -1.57845887    5.50515972   -4.80634071      0.10933146    0.53483819   -0.58690136    -12.33765856   11.17732114   20.35096989
    1   -2.99945703    5.39540409   -4.30393397     -0.90259571    0.51662227   -0.41693658      8.33716685  -11.66026944  -12.57203766
    8    5.99845010   -2.58433882   -2.78355948     -2.73315624   -0.33565354    0.72503882     -1.04127843   -3.47529696    1.62232229
    1    5.82641475   -2.46259085   -3.73672276     -0.03980242   -0.10155944   -0.08603346     12.29766242   18.28291832    8.43725334
    1    5.05870296   -2.76878506   -2.43307124      2.30232207    0.33075800   -0.56748937     -9.94729674   17.51902135    0.32588066
    8   -1.48489501   -5.53092217    3.92229943      0.22970137    0.12496991    0.61249504      3.08986231   -0.54450564    3.87837581
    1   -0.76588220   -5.16588592    3.36803971     -0.59232316    0.03574468   -0.20802465      8.85283220   23.46252186   -7.11764014
    1   -1.66255430   -4.82437806    4.56312696      0.06079589   -0.04195334   -0.29554726    -16.19869534   24.28209142   15.63973945
    8   -1.48952045   -4.28706189    6.68122669     -2.32422167   -0.05527297   -0.29214382     -5.81274337   -1.09299686   -3.78542100
    1   -1.33089761   -5.24692632    6.81194241      0.94307602    0.59691687   -0.09443391      6.24898277   -7.98319941   -7.58167072
    1   -0.67538437   -3.79865327    6.78043466      1.68104134   -0.64027986    0.15957501     24.99273384   22.68531135   -5.29792106
    8    2.50845380    6.79172440   -2.22111265     -0.73262405   -0.24904995    1.56742663      0.01970466    0.40575946    3.88125411
    1    2.60471242    7.03651655   -3.14571944     -0.73382053   -0.65324619   -0.86188383     -3.06250567   30.32738889   13.96059858
    1    1.60275098    6.36967138   -2.09807204      1.27599230    0.61058649   -1.04132776     -7.32265320  -15.21059938   16.24332442
    8   -2.11408595    1.25643019   -5.86638835     -1.16881743   -1.84137507   -1.78261824      2.60583586    2.54838785    0.37624848