 BEGIN_INFO
   #
   # This is a XCRYSDEN-Structure-File
   # aimed for Visualization of Fermi Surface
   #
   # Case: Tight-binding calculation
   #
   # Launch as: xcrysden --xsf HICOLM.XSF
   #
 END_INFO
 # estrutura final
CRYSTAL
PRIMVEC
      13.95410969       0.00000000       0.00000000
       0.00000000      13.95410969       0.00000000
       0.00000000       0.00000000      13.95410969
PRIMCOORD
  300    1
    8    1.64319286    2.07820789    1.36063810     -0.86620795   -0.74860456   -5.36824982     -0.12267926    1.69199917    0.19500153
    1    2.54773984    1.89259185    1.53185582     30.65848961  -51.16819210   19.94777575     -4.93461185    2.28728121   -1.24175139
    1    1.84897696    2.96484959    1.11788638    -35.38676382   48.70908555  -18.66990686      2.71906758    3.40178175   -2.56805174
    8    3.50103550   -6.04056244    0.33289053     -1.40151395  -50.33851430   70.15595828      0.22404048   -1.85039840    0.62124675
    1    3.58262376   -6.76002634   -0.34970238     -3.74561760   45.06620055  -19.85644052      4.19168124    7.57941896   -6.10162543
    1    3.48011168   -5.15446723   -0.01531379      2.95240977    6.65725895  -49.47304034      1.33423518   -6.99238313   -6.09808192
    8    5.88481908   -5.34951485   -5.12946087      8.64620967  -42.59344108   77.36319368      1.11360376    1.51113630   -0.84538742
    1    4.99370124   -5.04525298   -4.81849610     14.95610989   10.00327389  -34.37405853     -1.63391675   -1.33640728    0.52077184
    1    6.05900764   -5.03912659   -5.99744582    -22.72849559   31.55256698  -41.06370181      3.51723892   -6.74191319    6.43370096
    8    6.18391028    0.55274050    5.83940498     52.04493140   33.97074581   62.39431018     -1.37692373    0.69243258    0.56961416
    1   -6.96776627    0.57193793    5.24864512    -36.92838480  -12.21474171  -11.91670012     16.58446256    4.06024872   -4.12063778
    1    5.43452360    0.24786144    5.36910810    -15.87932745  -20.99777036  -50.08665949    -17.28731415   -9.85395505   -1.00491268
    8    1.16347851    2.90729884   -3.86465720      7.71903886    0.81679976  -40.84372241      1.78033042    0.25665717    0.90190551
    1    1.65130543    3.24172641   -4.67157069     -5.73456980   -0.91854991   29.75260106     14.14807127   -0.65373098   -2.50137964
    1    0.62522447    2.19880262   -4.29958006     -0.95978493    1.28968755   15.58259319    -10.12386636  -14.34955805   -8.05824369
    8    2.79218088    1.70797051   -2.09284488     15.55240618   27.20162544  -31.54793698     -0.16583740   -1.02299556    1.09014424
    1    2.11432427    1.24058929   -1.65329869    -30.75881627  -27.04107267   28.25266354     19.18213761    3.58408312    6.19624229
    1    2.25336866    2.17946449   -2.77246425     11.67942206   -2.84195935    3.16332184      9.24338586   10.36314959  -18.60505704
    8    4.08541414    0.98497429    1.68282477     32.21782345 -122.91881495  -87.98923248      0.98324176   -0.85218500   -2.23402114
    1    4.28956276    0.13473829    1.06466631    -47.76679167   70.28930279   78.89220609    -19.09424861    3.38664372   23.31900981
    1    4.80243261    1.47555116    1.31909646     20.12189303   50.36755592    7.86701203      5.99788932   30.71994583    3.99386095
    8    0.06072994    4.54369205   -1.99033814     23.03338462 -102.02558606  -30.46255909      0.76065605   -1.02257679   -1.53833968
    1    0.55455921    3.93488597   -2.65074038    -10.96769765   61.87601529   12.68311592      7.64197981   12.21622159   -9.83486592
    1   -0.28770321    3.75619033   -1.49368812    -11.00240651   41.54845705   15.71280383     -4.48038852    7.43746133    7.90616086
    8    1.25959326   -4.92308806   -3.50526351    -20.85134870   49.71029534   25.11308622      1.92369143    2.07523156   -0.35340393
    1    0.98591871   -5.48268305   -2.76780519      2.72391114  -21.62068389    1.37044372     -4.00376580   -7.05397193    7.97634112
    1    0.87933814   -4.05178007   -3.16050261     16.22136247  -24.21165211  -25.23914237      0.90924295    8.54039815   -1.71444862
    8   -2.88735118    1.57300186    1.09448075      8.14515842  -54.37540474  -69.89596409      0.24839280    1.03553850    3.12132772
    1   -3.29782246    1.85599165    1.85558099    -30.54601029   19.93100568   57.80679412     11.31519882   -8.84287901  -25.30724691
    1   -3.44810436    0.78455132    0.80453310     22.62967030   30.52497725   12.09002950     -8.29531022  -14.83678197   -4.10028598
    8   -1.13558446    2.43740672   -0.70172524     55.11364395  -31.34545651  -22.44011056     -0.67820313   -0.16955587   -0.54441323
    1   -1.65714744    2.08356893    0.01500144    -24.65546203   -3.99356969   24.76312879      1.93809270    5.88186087   -1.75365600
    1   -0.41656378    1.71973672   -0.76053708    -27.13448083   33.33937146   -3.91791959     20.34276202  -10.90844279   -5.97881069
    8    2.14923454    4.60421096    0.61371838     43.98006216   48.81473863  -67.19445304      4.71662988    1.27468218    0.87905247
    1    2.29842094    5.08256778   -0.27782094    -31.08488124  -32.96180496   43.33026396     -8.07779875    1.87906512  -18.68163631
    1    3.04229475    4.78825107    0.97191156     -8.05228965  -12.37038613   22.28879666    -41.04214553  -18.78785507    2.37962329
    8   -2.28401829   -3.34071628    4.68207957    -18.72567679  -27.09049346    1.98247488      0.06633848    1.85418390    1.44509961
    1   -2.53627489   -4.11833689    4.11246563     11.09208584   24.42025243    8.85487319     -3.58218179  -15.36944896  -17.11643828
    1   -1.75429239   -2.78288053    4.10145273      4.68574660    5.02038841  -11.73611594     -2.08729392  -12.50048540    5.73357897
    8    3.18068074   -6.42664987   -6.60972570    110.17510068 -135.26875946  -33.81606495      0.83005004   -3.06369193   -0.59823504
    1    3.08773014    6.93928782   -5.83339628    -25.63956890   31.48216033   11.98308805     -7.02972974    7.51800053   20.97083296
    1    3.89629315    6.85430072    6.88856489    -77.90128062   98.74209069   21.99892208    -11.77092636   14.39258846  -11.16507586
    8   -6.40144627    3.63853480    2.31556465     -1.50460690   -5.07455085   -1.41948322      0.86288808    1.85900295    2.32950642
    1   -6.93299582    3.10191458    1.68316356      3.21245625    9.18104313    3.24561490     -0.58578586   -5.80741029   -9.21280783
    1   -6.46839834    4.54384596    1.95927782     -3.80048787   -4.30000785   -2.92646059     -0.53604261   -1.56338348    0.98321074
    8   -4.24635503    4.44836336   -2.65092162      7.11484308  -50.85628931   45.85572909      0.31068339   -0.07953243   -0.04194550
    1   -4.01537882    3.49372476   -2.46416605      0.70596175   19.15526189  -36.23935081      8.51055766   -4.76509587    8.26799289
    1   -4.42344200    4.66542402   -1.71570251     -6.28189716   30.90589544  -10.45265358     -3.27754283  -11.77868243   13.32743077
    8   -0.21253732   -0.66206563    6.77029880     51.51138695    3.53852699   41.61654720      0.97753623    0.01450682   -1.16345666
    1   -0.29298887   -1.63867572    6.90344136    -18.10439764   11.79144720  -19.36667283     -4.90784852   28.11677013   -5.71578019
    1   -0.90179600   -0.35935370    6.20061729    -32.27502001  -12.28990835  -23.40074117     14.56452897  -10.33214516   15.36581423
    8   -6.02399519   -6.19484669    3.38673144    -10.84890052   38.89043132  -92.87650407      0.41910353   -1.19899029   -3.61899007
    1   -5.84469714   -5.86317523    2.42140798    -32.22240105  -12.42615278   61.07350621     -0.94070892   -2.89892750    2.00885287
    1   -5.19879645   -6.61222218    3.52284015     37.34379299  -29.92879574   27.84535789     -0.44788861   11.26656848    1.25330854
    8   -3.13018206   -2.58624874    1.72916219     37.75775293  -12.79988944   18.26922350     -1.81507587    2.09853470   -1.76867790
    1   -2.29095313   -2.18401891    2.09120389    -21.45313946    2.86363468   -9.10389323     -5.66408212    5.59675792   -3.43107044
    1   -2.91617635   -3.54338673    1.88403487    -16.17303155   12.00801687   -7.60826498     -3.33387979  -22.74001930    1.12615432
    8   -2.75731497    0.29291233   -4.38309572     16.55387154  -84.98750060  -18.64980264     -0.15283555   -1.92593874   -1.59892249
    1   -3.39933142    0.47954649   -5.00834887    -49.38673764   64.17653176  -28.61137808    -12.89982236   18.36278410   -3.52852994
    1   -2.73101216   -0.65061041   -4.73725880     32.36534065   19.29525757   44.48041757     11.70667951   32.69103797   16.95483848
    8   -1.96868913    0.54719406    5.02319292     10.01608567   56.95620194   11.77677620     -1.36295287   -3.30908695    1.12688351
    1   -1.40885930    0.55616570    4.18686587    -16.93258619   18.75455978   32.96661652      7.98720316   28.44653427   -7.45542133
    1   -1.96922304    1.52781855    5.40574700     10.27832022  -71.23954366  -45.49423341      9.89838950   36.10889474   -6.08229988
    8   -1.97496284    4.88063962    0.47943841     -4.06967336    7.35028660    2.97482168     -1.54937197    0.28248375   -1.80452119
    1   -1.68761651    4.07998366   -0.01599370    -16.06943839    9.92353063    2.53812098     13.86371249   -9.33006706   -6.52506828
    1   -2.92954725    5.03606813    0.25186166     17.41148100  -15.70768942   -3.67842324    -14.03313705    8.24077291    3.99369513
    8    4.09074701    3.28577576    4.29779682    -15.22785636  -36.06944966    9.69700048     -0.84734525    2.33787234    2.43463002
    1    3.86113376    2.39845469    4.59412846    -30.37829046    3.37107707  -14.34181638      1.43639751    0.98229716    1.29679367
    1    4.95601428    3.25631604    4.65065226     44.77456594   31.01901838    3.31016722    -14.52194615    1.08900739   -4.84427865
    8   -2.15117894    4.43988089    3.24825282     52.39293650   61.77565218   10.79459100     -0.59990883    1.13055450   -0.13288201
    1   -1.71225960    4.75578439    2.35643679    -59.67819400  -60.53796402   40.87213039    -11.17782969   -5.13842015   -2.56052562
    1   -2.77316930    3.69474085    3.19301367      5.36499691   -3.87767523  -53.33474867     -5.43809796   -0.24243899   -9.83393654
    8   -5.72665462   -2.96984628    2.46888042    -20.89907399  -27.00262098  -21.66774475      0.49341873    0.85891471    0.03867666
    1   -4.79094932   -2.63771411    2.34918595    -21.97949858  -30.22309851  -20.97275461     -0.65973311   -1.08324924   -5.49865227
    1   -5.93699524   -3.72926240    1.78861744     43.49271878   53.58732523   39.39203016      3.57285837    0.53027947   -5.07338545
    8   -4.96097031    5.53398696   -4.95130851    -27.33060837   17.40061552  -27.97076272      3.45906237    0.45675347    0.51620856
    1   -4.77265845    5.09922682   -4.08800839    -21.46302855    0.94552846    2.32282273    -13.15296720    3.39957099   -0.92500863
    1   -5.97436746    5.65150192   -5.05183672     48.03516699  -15.89599765   22.49755300    -22.04999906    0.10507303    7.10162105
    8    1.34561256   -4.83064471    6.09984874    -68.20826333   68.09338187  -39.80747068      2.11607435   -2.71098840   -0.24236529
    1    2.06651057   -5.21897260    6.45687638     67.84581373  -50.34941935   35.18207509     -1.62089785   16.65550618   -4.65327956
    1    0.76121149   -5.56744508    5.88077000      2.94785321  -15.85446067    3.23789021    -22.03280718    0.30486903   -9.16706004
    8   -2.63771605   -5.15501826    2.53781858    -14.60492088  -15.63098621   20.65878611      2.23582881   -3.77975883   -2.39183150
    1   -2.98313456   -5.94731018    2.98189985    -19.42736245   13.07588592   19.66317077     -7.87295365    1.92342305   11.52971647
    1   -2.09114650   -5.63867290    1.94452060     33.71056607    6.60875666  -40.48756937    -15.26443707   28.36570085   18.72294792
    8   -1.02232521   -6.60872313    0.89271662      2.95916935  -45.70471008    9.82749335      1.53714817    0.67602854    0.22352218
    1   -0.28654359   -6.83481182    1.54164226    -22.14708140    2.60408441  -21.80965515     -8.18466447   -4.78750482    1.61100203
    1   -1.43717977    6.43325932    0.69355707     21.18790673   38.70556269   10.33747058      4.77433563   -2.32360294    3.60475183
    8   -6.09640770   -5.16393242    0.77637308     43.26552567  -14.71520766  -77.95119221      0.74979062    0.06430750   -0.04184891
    1   -6.77866791   -4.67375305    0.18257765     43.98518888  -29.81838630   20.49881313     -0.56454745    0.77439957   -8.25406676
    1   -5.34415032   -5.54722557    0.09758722    -87.55649849   45.74677601   58.67284680      4.75401356   -1.06314121  -12.37157112
    8    5.51752301   -2.48595479    2.80211213    -23.27589556  -18.06572464   91.41783836      1.25848995   -1.58916857   -0.77364856
    1    5.32730849   -2.27424197    1.96497407    -23.97003335   23.73819695  -92.00308837      1.71984475   -5.37387817   17.13204040
    1    6.45053391   -2.55001503    2.77369796     46.08430222   -4.02987499    0.97789416    -23.15280456    5.37976947    0.01744520
    8   -5.64317378   -4.05781534    4.99222061     14.58258591    7.20578056  158.38404312      0.94504934   -1.69955871    1.90459396
    1   -5.65168099   -3.36478896    4.39594301     -5.89332209    9.93059694  -85.34343933      8.21193199  -18.44750726    8.19677542
    1   -5.72853313   -4.91803479    4.63139911     -7.16941506  -16.21300292  -68.67802228     12.67377205   42.29253943    1.99243814
    8    6.71175291    1.02993347   -3.34732384     17.58012401  -11.09665887   29.77612984     -1.54482514   -0.52565256   -3.15651534
    1    6.50597359    1.94896389   -3.63713432     12.48683714   -2.83211887   16.40287752      1.73085713    7.43622285    9.11478672
    1   -6.66102912    1.09143571   -2.50571113    -28.07113843   15.89661006  -45.85698630      8.65336884   15.65084190   15.28557514
    8    1.07545567   -2.13054808    0.04118376      5.39255497    1.16977455  -55.95947408      1.88641099    1.54783500    0.01100505
    1    1.84712088   -2.69025962   -0.25065821    -13.29788202   10.63167580   18.64478373     -3.79826854    6.42956744    9.72316007
    1    1.09465262   -2.19229554    0.98219439      9.25987996   -9.52774591   35.36402500     13.48227804   -3.17147998  -12.44893227
    8    6.48797449   -3.85419770   -1.17123879     45.45642033   -6.11942248   83.59725208     -0.75531515   -0.37961692   -2.07866996
    1    6.90780372   -4.35961593   -1.84576207      4.95731761  -14.12435396  -39.54015873    -15.92084060    9.53595999   26.75122260
    1    5.76569664   -3.45471546   -1.55512786    -49.37981068   20.57871885  -44.15418108     19.05383609  -15.05955018    7.00786999
    8    5.84818957    3.48995990   -4.15170931     -2.12494530  -22.50339922   37.26638675      0.13217931    0.26003383   -0.84582841
    1    5.47880046    3.08347751   -4.95296758      0.08455920    8.97694822  -15.31960402      3.66355133   13.86436812    6.37582555
    1    6.07860455    4.39420591   -4.39614862     -0.92397192   11.20593152  -18.40718473     -4.35831892  -15.64972711   -5.08738864
    8   -3.47397306   -6.06923444   -5.29904678     26.36165874   12.17408047   81.00533363      1.99099908    3.07334800   -0.99111197
    1   -3.07824362   -5.94574018   -4.35382971    -13.09594880    4.46499413  -60.82786773      7.41266582   -1.41957834   -0.09594766
    1   -4.03040370   -6.82341433   -5.10851415    -15.24047144  -17.45175600  -12.58396772     -4.01376428   -9.85133516   -2.88435620
    8   -3.62504062    6.68959932    3.92531670     29.11195240   48.76988809  110.71491692     -0.57851240   -3.29246638   -0.09706747
    1   -3.14965923    5.92277358    3.72232895     19.79560363  -48.10694768  -26.36414926     -9.98561755   10.68232512   -2.14764233
    1   -3.21798558    6.86195369    4.89840977    -45.02276846   -0.95970034  -84.33816733     -0.86075015    7.99895965   10.56970915
    8   -1.83465306    5.51031421   -3.72382243     31.92026546   51.22782364  -55.14928905     -1.66630102    0.83004302    1.17211225
    1   -2.66239028    5.14998295   -3.56974057    -48.53518958  -27.74332213   19.97069882      8.96643742    1.77581371    1.48149512
    1   -1.26597300    5.13479745   -3.08777851     18.42177353  -22.57065540   34.48153125     -7.20970862    2.84423007   -6.61070295
    8   -1.59785107    3.16833419    5.61361724     76.66941685  -74.59382525  -84.50908609     -0.16091731   -1.07670655    2.62482633
    1   -2.08117868    3.58455138    6.22254097    -63.64731300   65.87085623   58.88167020      2.29600991    1.80516250  -22.17151308
    1   -1.67184077    3.67896670    4.76522418    -10.15622895    4.78312774   23.50065439    -11.68368026   15.47696496    2.69057442
    8    6.93482926   -0.51786599   -5.66947544    -35.15278285   37.47626446  -63.04145235     -0.04722842    2.77940574    0.85229991
    1    6.55782936    0.05960694   -5.02021620      5.06489566    3.05884078   44.80422717      1.84453157    1.38278789   -8.35293122
    1    6.43450126   -0.10851410   -6.45134356     33.29355108  -38.74146184   13.75335325      0.08664990    2.53870462    4.94283526
    8   -5.78796844    0.30884364    3.90626195     94.94156327  -32.57687464   60.54292104      1.45390158    0.64937518    1.17251330
    1   -5.10295238    1.00625971    3.76473138    -29.66971712   -0.61482932  -12.38799501     -7.13047088    5.13990897   -9.68707154
    1   -5.16661271   -0.35187500    4.43134834    -61.95742376   33.57274703  -37.57029508      1.87224510  -12.01799270    8.91581330
    8    4.43308408   -4.50546731    4.18110901     15.46395356   29.26193356  -15.74438873      1.84700171    1.32530739   -0.79630469
    1    3.59531722   -4.72359561    3.74427765     -9.20681661   -6.14475058   -2.20807744    -14.45906687   -0.32656401   -6.79082436
    1    4.74338228   -3.72251840    3.62921851     -4.62543085  -23.48620335   20.33027582     -8.44936449   -8.30062813   16.30874463
    8   -4.68756042   -6.04277081   -1.35852822      6.27137621   11.41559180  -14.13063332     -0.65486741    0.77320762   -1.30201661
    1   -3.85857967   -5.87884947   -1.81511852     35.74432739  -11.16142878   17.20556445    -16.38630338   -0.96699118   10.47134813
    1   -5.20336158   -5.69658975   -2.08845896    -41.33684625    1.44854964   -0.30400472    -10.69778995    1.71450735    9.80842989
    8    1.57135138   -2.66981225    2.64146480      9.04012447   -7.02397271   30.17116133     -3.55699977    1.36630535   -0.07949554
    1    1.86525350   -3.62412779    2.56788199     -4.91491240   22.91775199    8.16664825      8.22403884   -9.98250544   18.70183293
    1    1.83659199   -2.40576170    3.58589490     -6.14668283  -17.52595240  -34.61023349      8.36823792  -25.36770706  -11.06292063
    8    2.36921444   -5.26733426    2.64351370    -34.76765834 -100.31744215  -45.17310202      1.36316551   -0.18373653    0.21909501
    1    2.81386593   -5.61684056    1.81499331     11.60153061   37.93443537   16.80868888      6.33503429   -3.92348206   -6.82651844
    1    1.75877138   -6.09098226    2.69440212     20.35069263   59.91324843   25.35016528      3.76234233    0.54107907    3.46047080
    8   -2.63848122   -2.26174051   -5.34645985    -41.95873931   21.88985276   26.64711150     -0.58396570    1.18626563    0.22368098
    1   -3.42878188   -2.79006415   -5.71515910     54.97120353    6.25674133   -6.23042343     22.54826414    8.88297624    5.54364402
    1   -1.81919523   -2.51580028   -5.79652693    -11.34590610  -25.59904869  -21.51794125     -2.20712263    0.09530940   -4.84668994
    8   -0.76714176   -3.27996591    6.88578990    -49.66226698   83.32610036   80.94172988      0.46139689    0.58185529    2.15975054
    1   -1.42261234   -3.37423129    6.16923609     29.55362374  -36.14433795  -27.65767192     26.49019366  -23.81742473  -13.99877810
    1    0.00833611   -3.79217686    6.82367343     19.86114155  -47.60893272  -50.42727173    -31.77146050    2.01784516  -18.86523629
    8    1.82499670    5.02485759    4.65121469   -109.41125350   38.64757298   24.69044169      0.76381212   -1.53466286   -0.36753593
    1    1.44439446    4.26031405    5.12042265     -6.84089457   -3.26627284    1.05051500    -19.44301552   -4.57682923    7.04494764
    1    2.62259862    4.72868532    4.51899017    116.03829860  -33.97150833  -24.19657983    -28.67241671   32.37687208   -4.71006408
    8   -4.82708901    2.75267082    5.96889650    -23.74243926  -41.48523139   -5.70551711     -1.79767619   -0.32545727   -1.12011484
    1   -4.78557696    2.02811075    6.63001648     -4.15696377   -4.06216454   -9.82740522     16.96324496    7.28331496   10.11016605
    1   -4.29989844    3.38551775    6.40008073     28.38520331   42.98546656   15.89378690      0.27680859  -21.01424068   10.92553955
    8    4.64289183    3.63081054   -1.71332519     97.78410595    8.15571699 -130.59389780     -0.95430355   -1.88442709   -0.21198607
    1    4.01639145    2.99801562   -1.84574184    -75.95082259  -52.31949415   26.98368548      9.82798690   14.46145295   20.18019544
    1    5.07481962    3.44933476   -2.68307183    -17.25410803   47.76395814  101.99320209     14.30898254    7.93441501  -11.44532069
    8   -2.58370458   -2.82387279   -2.66647438    -32.87492712   -0.84050261   59.19769820      0.28926249    1.57739862   -2.21231787
    1   -3.46222480   -2.53720134   -2.26194215     35.93943949  -12.32173829  -13.03952806     -4.47940520    1.72204554    0.45625530
    1   -2.67428833   -2.55895355   -3.55812348     -2.94221351   11.60982309  -44.95039564     -0.08805274   -3.72921525   16.98979211
    8    6.82927390    5.91706472    0.95671421     92.08657206  -47.02578104  -11.70648455      0.63777380   -0.00335867   -1.44226769
    1    6.71155845    6.82306776    0.92180028    -24.80149601   55.96765065    0.44663607    -16.44840496  -13.45012394   -0.66679692
    1    6.00686884    5.53376892    1.07450599    -66.87428889   -8.09070603    8.92815273     -5.03644672   16.85490604    2.74487307
    8    4.69209211   -0.18745481   -2.05282852      7.08994389  -77.19256937   41.68659612      0.68540561   -1.14233709   -1.33139733
    1    5.49248902    0.08251645   -2.59138561    -51.38001873   49.74392521   -4.73408380     -6.66114567    9.27643246    5.91433970
    1    3.89941210    0.41985075   -2.00110765     47.46741159   29.01480819  -42.18422576      7.63584086   11.09052868   -3.02185977
    8    3.47195558    6.05336118   -1.63225011     21.57628492  -33.14643699   11.79725672     -1.76518653    1.19534791   -0.91829354
    1    3.23419341    6.04759365   -2.56846406     -7.94950564    7.76155301  -11.85709543     -2.59623864   -4.86441858   18.16349501
    1    4.03727256    5.22655291   -1.58075176    -14.68984209   23.33472909    1.56402417     11.12150071  -18.74095609    2.80537964
    8   -5.74302642    1.37256699   -1.10904440    -56.80081376   -2.14015455    7.00442279      0.45787200   -0.14799598   -1.00995060
    1   -5.42240271    0.67208792   -0.55665936      9.67175833  -15.60015136   14.30896728      2.00546742   10.19798683  -10.42685067
    1   -4.95753906    1.68724854   -1.49553024     44.02855923   17.19864220  -21.90106813    -17.95805767   -7.25839987    8.06598705
    8    5.24005464    5.67977132    6.19752731     44.20171294  -58.43551697  -44.75949464     -0.29181604    2.21297900    1.38420429
    1    5.27108401    6.12929017    5.34083955    -16.13665177   29.13061367    1.85683615     11.60043048  -11.38136394    5.13437061
    1    5.75467956    4.86438281    5.84761376    -29.03244003   31.55365086   44.03950722     14.79149208  -17.04126643  -10.16162405
    8    3.85250436    0.04891349   -5.48984189    -68.42484701  -16.72963891   52.25333291     -0.62106190   -2.67747727    1.60501934
    1    3.06227361   -0.32003649   -4.95881491     34.24070647   42.70892393   -8.23748173      9.74978307    4.24401747  -12.44793984
    1    3.96094462   -0.73558346   -5.98238104     31.43061056  -28.89557964  -41.38946417     -6.68745878    6.70437733    8.45948108
    8   -0.92521839   -1.65571335    2.93558884     14.10203725   -7.66648310   -3.39639238     -0.98349925    0.06781791   -0.69829219
    1   -0.66348068   -0.69617174    2.92642601      6.15767754  -20.17840016   -1.89608589     12.71948342    8.46569168   -2.47217310
    1   -0.06425985   -2.15368235    2.80540844    -17.54800804   23.86343478    3.05537544      5.42571161    6.12547462   -6.48378529
    8    0.09978072   -2.67809083   -2.48148595    -34.56781699  -14.45671690  -53.69142267      1.01080314   -0.63477218   -0.43788502
    1   -0.93283093   -2.71286843   -2.51691553     58.32472468    9.56671534   26.64520914     -7.38286507    0.83134763   -2.78964069
    1    0.38612712   -2.43948671   -1.59889727    -21.84537037    5.95746791   26.26635634     -0.82139186   -3.12868910   -7.89118403
    8   -0.09377682   -6.57344010   -1.73779988    -11.30720403   16.99556081   45.47816224      2.94337147    0.22464806    0.41877198
    1   -0.32019305   -6.54088429   -0.76647722      2.98386955   16.47538536  -24.99576967      1.38740062    5.51546648    1.73894377
    1    0.04689077    6.45151180   -1.81149900      9.45013197  -34.50061591  -18.39460169      0.31608374    0.24705264   -7.07059791
    8    1.88104206    0.51149733    5.12088619     31.77746978   -6.95846269  -15.24697924     -1.59940799    1.13541283   -0.36593669
    1    2.75241011    0.06476148    4.85062471    -37.61070607   11.54089441   13.79685694     10.86520162   -7.90523500   -0.67975907
    1    1.43223115   -0.13919850    5.68414223      5.43240965   -8.54899217    1.03001881      0.33299760  -14.77554306    4.07959506
    8    6.76908724    3.69568456    4.91977926    -32.94995962    6.67204491   43.05872267     -0.63465804   -0.27814309   -0.06902806
    1   -6.42958347    3.33255494    5.45202101      1.45901845    4.41977134  -34.68809715      6.07048609   -2.93541663  -14.39904401
    1   -6.94935478    3.72052946    3.98339074     28.97931122  -10.68356207   -5.28991372     -0.11943620   -5.30936897    3.86307224
    8    0.08837504    0.81961373    3.11888735      3.30618348   -1.02576564    6.41275239     -1.16151676   -0.08361197    0.70242092
    1    0.48785890    1.37404789    2.37727035      6.27478081  -16.49803034   35.86605343     21.16704575    0.54050258    4.27595907
    1    0.79250706    0.70571093    3.83646447    -11.96149621   16.59313421  -37.76993828     13.06022181    2.68043977  -13.01247961
    8    6.03510892    2.44491395    0.30460321      3.32473503   -4.60990921    3.68447225      0.75307606   -0.52367158   -1.15292736
    1    6.71118874    2.01828338   -0.22487020     18.11987278  -12.35891440    2.99242020    -23.58146810   16.84529657   10.81017892
    1    5.61932016    2.97277443   -0.37954296    -19.31648265   16.78106269   -4.48274042      4.59307954   -4.32000373    2.76747079
    8   -0.15891219    0.88884756   -4.97078475     -6.59363716  -28.88222065  -38.62704140      0.68842426   -0.19590685    0.70684414
    1   -0.14803592    0.35446844   -5.83026670      9.98342000   21.70977713   27.62070874      7.23543045   -8.74695087  -19.48397840
    1   -1.08303824    0.75099249   -4.70519421     -4.98389315    5.84493409   10.16420784      2.81581763   -2.11223472    3.28367327
    8   -4.63448605    5.49484622   -0.16691091    -53.67271638  -84.49644882   59.62661616      1.04729578    1.54512317    0.07913730
    1   -5.58450742    5.43734886    0.23323140     58.23674851    9.72084112  -25.18196898    -12.44317329   -8.88964378    6.36231629
    1   -4.62278442    6.31328645   -0.55686589     -2.69338644   71.61471903  -32.26466904      4.11603690  -18.06610453    8.60921395
    8    0.90373273    6.25244491    2.40081707    -25.62475805   51.26851094   39.95188259      0.21327914    0.87601271   -0.02704005
    1    1.24834240    5.66824581    1.74851908     21.23572891  -38.80214633  -12.50291748      3.91002181   -5.51593538   18.29438614
    1    1.08368732    5.85288193    3.29277774      6.71154567   -9.31209124  -26.18063380      4.03308830   -3.61040439   -6.47065531
    8   -4.50599432   -3.81768844   -6.43723727    -11.35310190    1.12261451  -14.27085380     -1.44620884    2.11409607    2.43852916
    1   -4.87085415   -3.97008230    6.62264521      0.15673003   10.35845380    0.60257345     -5.66680456   -1.26957456    7.84554633
    1   -4.24869467   -4.71850289   -6.19933195     10.09826041   -7.00512638   14.75720647      1.42092159   -0.88365460    1.63238818
    8   -5.76424832   -2.44429153   -4.39897000      2.81518299    2.59522684   17.35742534     -0.62436524    0.52320880   -3.18662353
    1   -6.27809417   -1.75607223   -4.82932175    -21.22037763   21.41699231    4.04787740    -13.77364598   17.83142860   15.08928265
    1   -5.35470475   -2.79605106   -5.17477388     21.32109259  -25.47001365  -18.15617754      7.01539360  -10.49065838   21.71341100
    8   -6.69079925   -0.27604145    1.47995353   -161.85535681   -7.73809369 -162.46262759     -0.02882736   -1.76300535   -0.28848775
    1   -5.91517924   -0.50144297    1.02731792     79.14540742   -5.27937367   40.99149455    -27.70528005    0.45866739   17.12000558
    1   -6.67787329   -0.09448478    2.33252121     79.15787339   12.51766497  112.72017435     -0.52237840   -5.24877232  -15.01088781
    8    4.18930898   -2.30359681   -6.75773973     60.54938804  -27.48715152  -31.16145146     -0.78031347   -0.91452554   -0.46423210
    1    3.85852780   -2.90604542   -6.07144595     -0.77042853   -6.30332294    2.19224845     -2.40076322   -9.93624117   16.78388280
    1    5.02069595   -2.81107880    6.82707482    -60.87778335   31.70164479   28.97117773     11.74915665   -9.59150786   -5.22346163
    8   -5.23330695   -2.11941894   -1.74485921     41.85545871   34.96931835  -95.92143700      0.45481485    1.41562139    1.59891599