 BEGIN_INFO
   #
   # This is a XCRYSDEN-Structure-File
   # aimed for Visualization of Fermi Surface
   #
   # Case: Tight-binding calculation
   #
   # Launch as: xcrysden --xsf HICOLM.XSF
   #
 END_INFO
 # estrutura final
CRYSTAL
PRIMVEC
      14.22507944       0.00000000       0.00000000
       0.00000000      14.22507944       0.00000000
       0.00000000       0.00000000      14.22507944
PRIMCOORD
  300    1
    8   -3.62465477   -3.20854440   -2.46206331     13.35597597   12.89441322    2.18600984      1.25066503   -1.23668546   -8.41254527
    1   -3.38472458   -2.26184337   -2.59824023     -9.55862665  -13.07149703   -4.45710706      9.04158184   -2.62220220   -2.78712132
    1   -2.88734508   -3.65713011   -2.92720565     -9.62649684   -5.13791063    1.73755098     -5.13860530   13.68427408   11.87558554
    8   -2.26310951   -1.25879080   -6.19403822    -15.50926863  -22.61444819  -17.90680742     -0.05699617   -0.48284638   -1.31049043
    1   -1.39277195   -1.14820029   -5.79537271     18.93531217   11.56123055    6.86369929     -0.73348633   23.11447513   24.84071044
    1   -2.14045645   -2.12062851   -6.67159657     -5.22879356   20.55720929   17.08380768      2.86203522   12.33131176   -0.30073538
    8    3.96466735    6.60230456    6.91323295     27.78562519  -12.31218736   35.39952576      0.80481673    0.44789866   -6.33174832
    1    3.35923552    6.84962024    6.21397206     -5.60451978   10.47130683  -26.12432497    -44.36550481    3.78646899   20.03499401
    1    4.85319770    6.54238820    6.49078602    -19.64451481   -2.47710021   -7.51249392    -11.24484270    0.64092991   14.17091861
    8    2.09796160    5.90972832   -5.25991017     16.38426997    1.03022668   40.81066289      1.43571896   -0.90690585   -0.41563630
    1    1.30502953    5.89225636   -5.79477334    -14.95177176   -8.70442745  -19.43262239     21.42209876  -17.46383946  -24.46880963
    1    2.80010944    5.95669317   -5.90179357     11.32965092    5.56974759  -19.12684318      7.97695957   13.19135361   11.58075550
    8   -2.00119336   -4.66049311   -4.17799336    -12.23835958   -4.36494927   12.01597587      0.08256888    5.21533883    0.70816034
    1   -1.69225339   -4.25893517   -5.00189264      5.35837414   -3.13717673  -10.32870987     19.38340248   24.03472035   -9.39847545
    1   -1.98582877   -5.63203349   -4.34046428      8.31132211   15.68076340    0.20814423     29.25217220   11.17200191   10.48605092
    8   -6.06811378   -4.41877039   -1.84976994     21.63887920    2.60201254   -1.66013387      2.19346049   -5.04829071   -3.81706105
    1   -6.46679349   -4.59385156   -2.75672094     19.65011844   11.95313746   18.98689944     31.14800264  -16.90217479   -6.38320303
    1   -5.12469987   -4.07916882   -1.99205803    -38.59887255   -9.44914859  -12.89092997      4.88998115   14.01861240   -7.06726886
    8    1.27023268    1.47301114   -4.46435657    -54.53334076  -36.98610334   45.94237187      0.69063497    4.46357771    3.72022964
    1    1.91830538    2.14997006   -4.19024156     -4.30381722   10.75910602    9.54361330    -12.01483273   -7.14220827  -23.97410554
    1    0.61786314    1.35522566   -3.66069746     50.49651139   27.28259878  -54.92331276    -23.10342231   25.27152386   11.75438537
    8    2.08761892    0.88680602    1.08936905      8.48233693  -23.00230745   69.40728377      2.86730669   -2.37428843    0.03040620
    1    2.34221458    0.45088147    1.98375377     -3.34758131   27.43380150  -55.08770067     -7.86523939   -0.73199805  -15.73426993
    1    1.12658891    0.95205401    1.22931584     -6.24118498    3.12201383   -9.07313384    -11.56327598   14.18478628   17.95615381
    8    3.18639279    1.32876772   -2.13434374      4.95331991  -31.06997758   26.46724253     -6.33145546   -2.41881214    4.00079686
    1    3.01581236    2.12277308   -2.61919971      1.36839502   23.33087992  -15.82377041    -17.77653690  -11.46975683    5.31275319
    1    4.13351676    1.39285045   -1.88862934     -7.58820626    5.04964483   -8.84995134    -23.56889843  -10.32354024    3.05585478
    8   -6.85156319   -5.60947930    5.60181249    -27.29428864  -20.62484166  -20.82511002     -3.75763055    1.69739696    2.82911429
    1   -5.90080095   -5.66597515    5.51118057     14.16772604   11.79233554   13.41723109      4.02585416   23.36989713   21.85032945
    1   -7.04090731   -4.97802420    6.31200792     10.28781652   11.04602424    5.93726487     -0.14689042    4.98187058   39.94215938
    8    4.63037014    6.74275839   -1.78318345     -0.01716705   33.68426180  -69.77031231     -5.03795069   -2.25717521    8.51434645
    1    5.12850182    6.45504275   -1.00914181    -27.03563336  -14.00285092   32.29738064      0.71232527   20.83472310  -37.91241719
    1    3.65119603    6.66516352   -1.63628867     23.51540524  -20.08961799   30.72079835     -1.90972297   -1.02341204   10.57917154
    8   -5.43452306    3.29076157   -2.32193378     -4.74354747  -19.61061966   13.03020887      0.38555812   -3.27447890    4.19749274
    1   -5.31300903    4.11057342   -2.79404592     -0.93203998   16.07014716  -10.15536440     -0.58093867   34.44876534   18.34297836
    1   -5.80229989    3.56873028   -1.46910192      0.81773249    7.35753568   -0.18926906     29.95229502    2.18870226  -31.71922295
    8    3.92845471    2.90396486    1.29018936      9.04319287  -20.22572202   13.83579405      0.28587079   10.73313508   -4.39184033
    1    3.09412710    2.41462597    1.17661671     -0.82368128    3.56757303   -5.15284944      0.12436729    8.45069394  -17.47136333
    1    4.50664744    2.15991409    1.59733300     -5.95801455   16.27726493  -11.72625044     23.77060046   -9.08021176   -6.21279961
    8    3.89650811    0.19110111   -5.06923786     44.51903623  -14.12880409   -5.24894885     -5.69783796   -2.67241709    4.32514803
    1    3.52887069    0.53843863   -5.86457223    -10.70552804   13.21543028  -27.69133029     20.00597434   14.41450810    8.69711737
    1    3.16106827    0.17075838   -4.50795451    -29.58609126    1.59807364   29.95110163     30.53328641   -1.89575921   -9.42643800
    8    2.37860038    1.65422671   -6.94245943     15.77180035    0.02083797  -11.70056388      4.41448504    2.50754686   -2.32620824
    1    1.94900555    1.67486386   -6.07299930    -17.70291708    1.11416405   -1.32629882    -19.68322027   -7.77229725  -12.12549583
    1    1.65165629    1.67777429    6.62065168     -2.26803350    0.16056988   15.91259697     17.73671663  -12.32031966   -8.19252229
    8    4.66027163   -5.66665535   -5.45310597     61.90210415  -14.41651013   56.49679862      5.62579840    5.49025764   -0.15801191
    1    4.40611376   -6.37941605   -6.06328142    -33.85789615   26.04684877  -19.85671595    -19.09156975   -7.67369488  -19.87552519
    1    4.13459712   -4.85781939   -5.52008558    -25.93965393  -11.85492810  -36.01499653      2.64283914    3.21865673   21.71920144
    8   -2.42021611   -6.13848280    2.81629595    -20.99707256   15.76636264   -7.42841555      0.40991653    2.72412355   -5.47349261
    1   -2.97762368   -6.17803203    3.60579200      3.34337196  -11.40798133    9.77319051     14.80977168  -27.81550704    7.33154393
    1   -3.05231164   -5.71883203    2.18514011     18.54181829   -7.84721204   -3.39897376      2.79037840   20.94919267  -12.88494361
    8    0.13713655   -0.80563154   -5.21961143      9.57680722  -65.05096859   15.46685420     -1.00889324    0.85157329    6.26703843
    1    0.71059697   -0.10209646   -4.94141090      7.75286312   29.34484735    2.50981422     -9.55353471  -29.48576309   22.88779916
    1    0.57335542   -1.59956522   -4.79658599    -20.92497123   32.42200766  -18.42528237     25.94680723   27.45864067    7.53698407
    8    1.21420854   -2.71245041    6.96060683    -35.86992012   33.82809397  -17.99108959      0.22216920   -3.52319399    0.25538005
    1    0.59475720   -1.95686968    6.68857734     28.75807660  -24.71232478   23.90017673     -3.78154394    7.75297375  -10.16611193
    1    1.51737527   -2.92654957    6.06905641     16.80091929  -20.00831310   -2.54346471    -32.92028488   -8.65567852  -23.98247571
    8   -1.70939230    3.80224509    6.03358205     10.71071739  -13.33665010  -22.00920449     -3.77902113    0.93189484   -2.01399643
    1   -2.53349689    3.83817383    6.50716376    -14.99669666    1.40584520   11.32036000      4.84027402    0.00148063  -16.99324758
    1   -1.12721376    4.40529101    6.50088280      4.94702230    8.59907399   11.17240748     13.78648830  -23.40540701   17.20671112
    8    3.15618352   -5.09612389   -1.92098931     27.29130928   68.50481589   73.73262039     -2.77020139    4.51749110   -4.42448986
    1    2.57961742   -5.20819502   -2.64022384     -5.94653725  -46.85929489  -41.62652124    -27.74285460   -5.03244996    2.68265483
    1    3.82437363   -5.79891116   -1.83380404    -15.65745792  -16.28720238  -32.10194928     25.58925410   27.39489076   18.24007805
    8    1.55331040   -6.62457412    1.25258533     28.42892880   -0.43858899   -6.72956003     -2.33439909   -4.11709675    6.12302898
    1    0.89733453   -7.05355257    1.74797866    -30.59588176  -30.84081402   18.73292365     13.92713812    9.20778785  -12.75238454
    1    1.42044465   -5.73864592    1.53607147     -0.41485328   35.23238656    1.13555681     14.04311652   11.95939199   -4.43366293
    8   -5.72273253   -6.81469859    2.51696104    -15.21314011    1.65790887   -3.47142586     -5.91863385    1.81605633    0.16795027
    1   -5.81499636   -7.00609582    1.55969138      3.70001417    8.13623549    3.47880756      5.31575739   16.27065190    5.37432822
    1   -6.55156571   -6.31394238    2.70064589     10.39490264  -11.26357652   -1.09167955    -22.86321148    4.58618142   12.29662287
    8    3.74827769   -2.54532699   -2.93900687     -5.40540183   -0.11274264  -36.41767893     -1.94035208    2.74632112   -0.42415328
    1    3.98880215   -1.97890116   -2.22888891     11.04343127   17.89822746   30.44399564    -16.74886461   -6.78105690    2.47890250
    1    3.80239842   -3.42376141   -2.56541985      0.30515156  -15.58507836    9.48548744     -3.64900753   -1.13905503  -14.06722976
    8   -1.37657773    6.97634100   -4.22829372      3.53145005    0.80045920   11.70555066      4.55676791   -8.01927659    1.68862026
    1   -1.52909615    6.18392029   -3.70158491     -6.02997616  -14.24082370   -1.84459743     10.89717119   -7.98154085    5.32182074
    1   -0.60605612   -6.89679195   -3.75568507      8.26391974    6.43502621   -8.80459899      7.43283348   -7.82981905   17.83036199
    8   -1.29003882   -3.70932286   -6.61858218     39.94320749  -10.65224780  -12.60582837      0.64656370    0.19956997   -1.78048654
    1   -0.29062629   -3.68926646   -6.64221059    -28.11149022    7.03719777    8.04491973      3.99902206    2.48446896  -19.32148253
    1   -1.46594345   -3.95089629    6.67717464     -9.47694484   -3.26748935   -0.46812624     29.31538650   -6.21793502   23.07126282
    8   -0.61883057    2.29791111   -2.37433626     -9.29941324    4.73792752    6.68550208      5.50632791   -7.97264172    4.47020957
    1   -1.20602769    3.04592434   -2.59172619     12.54094183    4.98294312   -7.61644440     -2.10622636    6.81488223    8.87673398
    1   -1.17533659    1.85051560   -1.70181562      9.57584977   -6.47768214   -0.49658559    -13.52212712    1.62491663    6.51889726
    8   -0.49530501    0.75939280    1.65732508     -8.34726409   -2.76574552  -27.75219217      1.20032063    2.22589999   -7.43961104
    1   -0.71909487    0.11776433    2.32599088     -3.43432503   -9.29038551   18.07939882    -31.57485980    5.07771948   -4.67096075
    1   -0.80860971    0.30866387    0.84787946      2.78304978   12.27173102    7.06356036      3.44414026   -9.35598469    0.82549690
    8   -3.69767413    6.90845674   -5.60083784     39.53289246   27.14376777  -17.47997673      1.37447061    0.47267398   -0.81719765
    1   -3.97422315    6.44325222   -4.84400807    -28.63705375  -25.19013071   30.21886664      2.15235533   12.58772950    3.03981489
    1   -2.73542460    6.98343957   -5.40823708     -7.89945661   -0.70680504   -9.17838574      2.09653780   -0.88806399  -21.34338537
    8   -1.15227028   -1.20615410   -1.73856479     36.05416254  -22.21632999   -4.32265448      2.19945601    9.34920159    3.70693092
    1   -1.82358283   -0.82404157   -2.29490894    -12.39703727    7.34486579  -13.29269286     -3.20563548   21.93512567    6.73727697
    1   -0.37965001   -1.35222725   -2.36414436    -25.06137022    8.08078254   27.80173196     -5.21798978   -3.98998393   13.82665858
    8    3.71748255    4.27626427    3.67754666     -9.91335149   -9.19661270   14.21877263     -0.18310717    0.61611115   -1.36594593
    1    3.68719781    5.24240540    3.43239067     12.87158024  -24.87838253  -16.29674059      7.45563972    3.85364065  -10.92514383
    1    3.81173261    3.72984342    2.85434156     -1.54282725   32.89190385    4.79737977    -10.71434087   31.32303557   23.21241565
    8    6.33489713   -3.46841407    6.99437230     24.37161856  -18.26401256    3.38342745     -0.46218314    0.86358150    3.61592366
    1    5.54216978   -3.43347580   -6.66528612     -3.46046114   19.92965891  -16.91093312     14.15304611   -3.67168951  -12.86586213
    1    6.35829093   -2.67947970    6.41294193    -26.21436135   -1.55892644   14.12489490    -16.86055728  -18.32439487    1.33977111
    8    1.97443663   -3.81327195    4.53315066    -29.93858521    0.67108676  -31.42376922      0.44023788    1.67907976   -0.53785670
    1    1.18601091   -3.85993619    3.92090784     24.78359217   -0.19799267   19.86063402      9.49474774  -15.37374373   43.70783823
    1    2.65235031   -3.42812667    3.92243552      0.26034626   -2.35196289   18.45266672     33.56056481  -21.21489804   37.81617898
    8   -7.03652462    2.79775688   -6.87235852     17.47351163  -20.18416596   12.52012595     -5.18732178   -5.87748262   -2.69289676
    1    6.30373339    2.81067749    6.99208167    -21.65329821   16.16445903  -17.16363751      8.35997024   11.08693333  -13.60616157
    1   -7.03053283    1.86922031   -6.54384830     11.12633571    9.61968075    2.48319023    -21.45595738  -30.87871317    2.04080552
    8   -6.48698687    3.86428136    3.48935357     -0.95553573   28.04781358   36.55514212      0.80565007    4.50079241    5.18766032
    1   -6.80555104    4.48170574    4.19169154     21.04694426  -14.38134969  -10.71184786     -7.02099142  -14.79202093   -9.63681800
    1    6.93786616    3.73607255    3.03532005    -24.46096597  -13.35577048  -24.62450880      5.30935550   11.88691969   22.73818962
    8   -5.17694065    5.79264281    6.75821340     10.93522505  -50.42002677    9.84088957      2.87369291   -3.35329453    0.75378583
    1   -4.72130177    6.05409191   -6.64731297     -3.38873496   25.54811283   -3.58988235     -2.62236625  -10.71078406    7.81711201
    1   -4.94479907    4.82286509    6.79412642    -13.12807266   23.95774324  -18.01551717     28.28509518  -25.18826292  -17.89990656
    8    0.39667863    5.41023446    7.04405827    -19.47305219   30.35740794    4.77706769     -5.38937883    1.98549335    2.65683729
    1    0.10460854    6.27664255    6.64392422      7.31449218  -21.93165171    5.84755092      8.65961180  -15.85449036  -21.38754874
    1    0.88586750    5.00002209    6.31497069      0.57698054   -5.59086816   -9.58113863      0.18118856  -11.94790862  -13.17813568
    8   -3.28806904    3.26376231   -4.84879328    -25.47636300  -12.90928847   12.36810491     -0.87373154    1.57337959    1.01052351
    1   -3.95278429    2.61049939   -4.51965579     20.26881768    6.38680760    5.68789934    -28.66432165   -5.63433944  -18.14714680
    1   -3.65183226    3.41341062   -5.72819765      6.69561056    5.00688143  -11.04178573      0.11615272   -0.81248185   27.71377233
    8    1.40974950   -1.18787019   -2.61979118    -83.52099000   -5.65172174  -23.78837142     -2.66176720    4.80214020   -4.03545155
    1    1.64441195   -0.37602950   -2.18026704     37.38504178    1.94050228    6.90011187     38.28917495   -8.66724355    3.53871927
    1    2.15041487   -1.75218747   -2.76070656     47.68135652    4.93515509   10.25695755     -0.15438179  -18.64814736    0.47289151
    8   -6.40137333    4.56460691   -0.02189258    -14.52648428  -42.42786914  -29.33144807      2.80669500    3.27213883    0.20923577
    1   -5.63150928    4.78848539    0.49983474     17.52395127   13.40751837   17.77685600     23.38262719  -31.05638858   -6.77322033
    1   -7.02885687    5.26103072    0.14298397    -10.97581820   17.51098477    7.20130126     -0.20835569   -6.50380498   -8.93494946
    8   -4.62201129    2.11071291    2.38278747     -8.64092326   24.96120159   23.53426814      2.02172654   -2.70155487    2.37392129
    1   -5.39948057    2.59834309    2.77406398     18.49798633  -12.54337476   -7.51677548      2.28250368   -0.85744169   -9.13014456
    1   -3.88075845    2.68343706    2.69152160     -2.86024522  -14.15541057   -5.69005412     -0.57191007  -28.31180446  -16.32239977
    8   -2.60817507    3.69475139    3.35940118     -7.41789188   13.11067316  -59.92917156      4.37201294    6.85817422   -4.63560900
    1   -2.41994307    3.53203786    4.24363863     12.15074747   -7.57899725   59.72192707      2.92654160  -10.64456083    9.34521948
    1   -1.71251485    3.84110015    2.97540876    -13.99834929   -6.66890700    2.34734865     20.13438758    1.67544669   26.64463884
    8    6.60769417   -2.74220773   -0.05596689     11.76197596    8.82786709  -21.85464895      1.37284729    8.39330858    1.96961268
    1   -7.10415221   -3.37954228   -0.56950950     -0.45457609  -14.41556898    4.20294300    -17.52290075    2.11368441    2.98312172
    1    6.72798945   -1.95558379   -0.63298157     -9.70111043    4.11839033   16.30587785    -11.25071838   13.35044354   41.98334537
    8    5.30395440    0.56716783    1.73188550     -6.05050156    0.76177495   25.10600148     -3.43853418   -0.98393943   -4.62063366
    1    6.13701336    0.98752652    1.40845001     -1.08682212   -5.32854447    9.90704950    -15.65542071  -24.17895719   23.61177732
    1    5.35508509    0.59715495    2.73413690      4.60133485    1.84046856  -34.08971000     22.89020066   -2.95757863    6.01967963
    8    2.99800197    3.32462153   -4.05822282     86.51317751   36.59785059    3.22543169      2.56236241    2.73294290   -1.64141529
    1    3.99191935    3.51674008   -4.00588751    -31.41698092  -41.55814453   11.84422332      2.79490427   23.00669197   -2.26194180
    1    2.84077952    4.13219762   -4.52843352    -48.85472882   14.57516231  -11.71996144     11.72003455    1.65929850   16.05460045
    8   -0.46770668    6.17366863    3.00917612     12.37021092  -43.08689116   -4.02403200      7.63725270    1.54501968   -9.86154291
    1   -1.23875734    6.72538251    2.89932167    -22.63032649   14.82442892  -11.29101566     -8.65709258  -28.23653156    3.86744039
    1   -0.75113336    5.28996101    2.61914634     15.02958350   35.18794769    6.92578982    -11.05490457  -15.09448969    5.74671856
    8   -6.77281812    1.85512824    0.88237990      6.66755528   16.64980929  -10.35447034     -0.44737621   -5.01011614   -6.97119047
    1   -6.67493555    2.80641514    0.65986744     -1.44384776  -11.10425357    0.98319622      8.21281557   20.78944170    3.25331417
    1   -5.86296696    1.62515797    1.17457064     -8.62868449    1.54939891    0.10437480     -4.70713022   22.68540879   -0.68506192
    8    2.46513958   -0.02727773    3.80180443      9.46038152  -12.81214938  -15.51111875     -3.23764925   -3.86786530    0.48236581
    1    1.81894405   -0.15281487    4.51201055     -4.93981667  -10.04292379    0.37582776     -3.82743838   11.02792282    8.28908906
    1    2.77548997   -0.93784172    3.57692597     -9.56417379   13.80652128   11.83057513    -25.15463445   27.30420260    1.53088351
    8    5.23102807    5.63825711    0.48059951    -42.85133368  -45.11867785   56.58205233     -7.26414363   -0.31211849   -1.13021701
    1    4.99053756    5.95076675    1.38106009     18.45821326   25.10030484  -14.25243914     -6.71440337    2.13567018   13.52475214
    1    4.63001055    4.84602117    0.52181397     26.51101696   14.09324617  -28.10965406      6.85696253    1.22166859  -23.81741751
    8    0.21582802   -4.67171755   -1.43305121     23.70705154    6.93564563   -5.65608444     -0.31499661   -2.09330645    1.29945329
    1    1.13613823   -4.35982357   -1.24470886    -28.28316295  -12.27803648   -4.24163699     14.78426561  -15.38090098   24.59525356
    1    0.27613183   -5.00790615   -2.34748557     -0.42012622    1.71922814   13.21663073     -2.99027903  -21.89283658    6.06715374
    8   -3.72123632    0.59219095    6.72543097     -5.41561157   27.14481322  -14.41753127     -0.32687106   -5.83413374    0.58303773
    1   -3.04714319    0.03239801   -7.04090249    -31.38213980  -17.39548767   -7.45960078    -14.04970703  -21.07668592    8.63164399
    1   -4.54438867    0.06583063    6.50806347     35.49990364  -12.37763219   20.38008053     18.66468094  -11.23065032  -24.75018028
    8    0.28657068    1.88780219    5.55740708      6.14365635   -5.41802211   -4.35034593      0.70828002    2.46024640   -2.86272592
    1   -0.47904394    2.36854481    5.92221379      1.62585883    6.38997875   -6.11624673     -1.67231724    0.27116185   17.98826464
    1    0.71420414    2.53908526    4.96331539    -12.17072973    0.12306917   10.11101830      4.40180360   -1.15184041   39.82649829
    8   -5.36795586    5.65338889   -3.82504320     22.32136213   21.53529986   32.87377071     -1.13599994    0.69514066    2.55850493
    1   -6.17950808    6.17637487   -3.92449695    -13.40036579   -8.98801768   -9.36778316    -24.91376082    9.30270249  -42.53623321
    1   -4.98039223    6.06104389   -3.01573223     -4.39784499  -15.32795382  -13.84797647     -2.84609572  -19.21572854    8.19840756
    8    3.79255479   -2.60276716    3.10370332      3.79619115    5.41355188   -8.02378839     -3.14942827    3.09205553    1.56708410
    1    3.46837035   -2.63535423    2.20301518    -15.81865008   -0.48294508  -14.64470492    -12.41981335  -24.71230982  -16.44927090
    1    4.73419001   -2.71662151    2.93000816     13.12549393   -0.07325092   12.42583048     -7.62352388   14.67620201    0.51408726
    8   -1.88357201   -4.58987796    5.11780676    -37.70739189    3.08833163   17.42049989     -1.16132830    0.60464788    0.54490546
    1   -2.88336553   -4.49622112    5.21786079     42.62529148   -3.64357954  -15.62774329     12.60383441  -25.35457966  -16.56876950
    1   -1.72473103   -4.68729302    4.16644159     -9.57024949    2.55792848   -1.95486636    -17.17547882  -12.20424100   -8.22377220
    8    6.96860907   -4.68730683   -4.17385930      7.14710451    2.91663655   -9.71819066     -1.62076492   -0.24967840    4.36804800
    1    6.16728171   -4.91559223   -4.66652118     -9.23949481   -6.72021007    1.85463413     15.87388397   16.73980412    9.96360953
    1   -6.60368693   -4.63858298   -4.88265928      6.68745227   -0.85822503   -2.19189089     -3.99970894   16.40310426   -6.87307473
    8   -3.92484986    6.02196533   -1.32249063     -5.93599169   25.57241114  -37.19573280     -3.11485014   -2.39753596    2.90123166
    1   -3.73958815    5.43248648   -0.60101791     10.19254902   -6.28589697   23.64869886      5.48986403    0.36278502   38.12586366
    1   -3.29010147    6.76733015   -1.21522742      4.13422445  -11.38888465   13.99975259      3.59799995  -33.86704594   -2.05418191
    8    2.33609378   -6.48614542    5.10841551    -35.59429678    0.97001666   -8.02591171      5.07187232   -2.41076226    1.65333965
    1    1.36589498   -6.60071586    5.03846044      9.52339018  -25.74193957    8.93005677     -1.36373554   18.29955301  -26.52268987
    1    2.30543625   -5.53535059    5.07758775     27.86989209   26.08242720    0.46675548    -21.10572620   14.18760951   14.77301024
    8   -4.39715299    5.12978955    1.55524173    -12.03931846   16.89398294   -0.39071073     -3.75805395    0.21766512    2.15018166
    1   -4.91006499    5.71380057    2.15519070     10.76487576   -6.59175240   -6.51674695      3.91702468  -12.65985630  -29.10535171
    1   -3.87576924    4.60818886    2.16300774     11.40265604   -7.36551525   10.56874972    -23.86559367   17.25973145   -9.64517253
    8   -4.01913957   -0.66501543    2.59973640      1.03274527  -45.22693505   49.72658460     -1.89547735   -1.48245958   -2.83455042
    1   -4.44068507    0.16113918    2.79173559     -6.23118832   29.57483704   -8.27027557     12.85133161   -0.32426062    3.91322768
    1   -3.78764226   -0.63305610    1.70017889     -0.58822385   14.81714407  -44.85799974     13.69675398    2.85411657   -1.84322722
    8    5.88578459    1.98532391   -1.77616026      9.63120815  -20.18294351   50.92023820      1.76584668    4.89629070   -3.61885390
    1    5.67293513    2.69162056   -2.37524902      4.44191662   25.44365993   -4.39446522     11.78808812    9.25072522   -2.94571302
    1    6.12585560    2.39444549   -0.88653570    -12.17210069   -5.53545498  -47.48928777     -2.55387959   13.80150546  -10.81409720
    8    2.85858929   -2.98522125    0.49950391     -1.01040260    7.19718708   -3.52558062      3.17284735    0.36192289   -2.64933074
    1    3.03310848   -2.10126446    0.06572552      1.86572002  -15.12601665    9.29905527    -14.10080787  -11.63958154   23.46871246
    1    3.34936082   -3.59117610   -0.06886411     -0.44872557   -2.78858624   -0.05934647     15.24139989  -22.33589063   16.39873531
    8   -5.75055653   -6.59407802   -0.24489956     28.66415747  -24.26454055  -27.16490700     -5.42817515   -4.22683739    0.32480276
    1   -5.10463063    7.07104576   -0.76399939    -18.24854598   -0.15170494   32.09203510    -28.56316911   18.23228352    2.63052768
    1   -5.90875608   -5.92897384   -0.91859898    -20.11013087   25.16638998    0.80774698     -5.50325082   -2.72093421   11.46676266
    8    4.84724217    0.86795211    4.49667478     13.86762062   -0.70781634   -1.35234823      3.04401044   -1.88828222    3.85443991
    1    4.78593673    1.61301361    5.12643800      0.22558514   -2.20119285    2.25447141      3.19081108    9.30449444  -12.85494100
    1    3.92871496    0.56308432    4.41990720    -10.09515567    3.57965693   -3.69348956    -10.97331758    2.85779013  -11.67195388
    8    4.74605091    2.82542833    6.37853249    -25.04363235   28.85548152   -3.11435235      0.16099910    0.23153428    1.44272317
    1    4.49858892    3.56135052    5.77628245      9.72924668  -11.52102712    2.76393736     15.35427711   -0.85124789   -3.86244511
    1    3.99680767    2.85090613    7.01118546      8.50831725  -13.32257869   -7.42316933     -7.65214553  -17.67332156   20.50108944
    8    6.42691636    6.07380744    5.61030390     -8.71923375   -9.86546363    2.78407578     -2.52201837   -1.57130615   -2.75659619
    1    7.09121484    5.65848250    6.19943328     -0.56432321   20.39479146   -6.09211453     34.22940707  -11.99460455   25.85202037
    1    6.60383691    7.04034695    5.63471021     13.93172919  -11.60163048    3.86677121     18.15439512   -6.12478595    4.06935712
    8    6.14386994   -1.44556684    5.09043342     -1.60058042    4.43016793   17.06182371     -3.12737529   -1.45717682   -1.13560855
    1    6.25596948   -1.93953220    4.25291318    -20.21940800   20.94279966   -5.16110292     11.52082286    4.98764217   22.53406535
    1    5.50528001   -0.68008978    4.95060598     22.22691399  -28.20529240  -19.57950733      3.98712557  -14.91437639   -0.09208593
    8    1.22517858   -6.69556524   -3.26496921    -47.95935366   65.44214326    0.37380743     -4.10024275   -5.47071067    4.40236336
    1    1.61070670    7.09021640   -2.52883973     18.70275856  -30.71683969   22.58388787      2.19821350  -15.05357334    9.30019240
    1    1.52011678    7.08524758   -4.03855469     23.46882227  -34.24717145  -21.87773640     12.44920156   23.53929606   -8.69082706
    8    6.49351341   -2.93443527    2.64337378      9.68333723  -11.29779580   63.13981555      2.23778227   -1.20925151    3.64865571
    1   -6.77233589   -3.14486386    2.84477274    -25.26037044   10.24278198  -30.02524133      8.75934356    3.36602280   -8.60948058
    1    6.42032495   -2.78178433    1.70170996     20.13694721    0.86302730  -32.67177924      2.94305320  -10.30181116   -0.65825461
    8   -4.83238340   -3.53924031    5.60442777     33.76512452  -38.09772879   24.21104443     -0.50534747   -5.04420126    4.29022163
    1   -5.45277055   -2.92471811    5.93467436    -23.44321487   31.26024985    7.58053109    -28.03683573   -1.55803929    2.87422919
    1   -4.56397482   -3.98387693    6.45209492     -7.10805364    6.98612464  -21.04484954     17.30742120   -6.99899336  -12.55852760
    8   -4.01364759   -4.83551017    0.93433442    -11.47948173   31.81753818   34.77073365      2.63888241    0.15804523   -2.15715545
    1   -4.73977335   -5.33715898    0.55748308     -4.48620399  -11.27385899   -9.27021767     -4.02249280   -7.97089048  -20.11374910
    1   -4.49734514   -4.28371136    1.62963198     24.25082947  -14.50535448  -21.79868954    -14.38023708   20.50574978    8.62349786
    8   -0.31134439   -6.77900651    5.40823846    -90.85587987   77.92510859    6.21061822     -8.52255479   -2.85882874   -2.34754174
    1   -0.50932670    7.03861860    4.54672264      3.80221567   -4.47891729   -0.28535835      7.80766960  -15.60512916   -3.05868872
    1   -1.09506154   -6.04150598    5.48322837     86.93319658  -72.90003666   -5.56707039     -8.84418315   -2.69921390  -21.41199987
    8    6.25266389    6.28475891   -3.91158109    -73.22596316   51.04507420   21.59705554      6.59559300   -4.19855466    4.80965122