 BEGIN_INFO
   #
   # This is a XCRYSDEN-Structure-File
   # aimed for Visualization of Fermi Surface
   #
   # Case: Tight-binding calculation
   #
   # Launch as: xcrysden --xsf HICOLM.XSF
   #
 END_INFO
 # estrutura final
CRYSTAL
PRIMVEC
     304.25490059       0.00000000       0.00000000
       0.00000000     304.25490059       0.00000000
       0.00000000       0.00000000     304.25490059
PRIMCOORD
  300    1
    8  -56.54773889   31.48070411 -144.26328840    -20.22140665    0.26834089    2.23432916     18.90527336  -17.20459069  -41.57488053
    1  -56.62720378   31.28441214 -142.99884393     -0.48429830    2.44273646  -15.44809119   -465.63418040   79.01863084  137.48137168
    1  -57.82040337   31.63337296 -144.98660289     20.70570496   -2.71107735   13.21376204    199.97610271  148.69062625  505.94399497
    8   -5.04461804  -33.66914744   23.14444917     11.22383061  -23.87365419  -92.61679434    -11.76227267    3.80556789 -115.39215966
    1   -4.19369155  -34.55126885   21.41340136    -19.42573179   21.59671731   47.83636228   -328.93815478   56.58399961  397.10452663
    1   -5.53922784  -33.65510561   21.30701144      8.20190118    2.27693688   44.78043206    671.93031590   87.45858344 1348.05346683
    8 -142.18623558 -146.06062965   39.65979006     -9.52189749   -2.22180533   21.98651538      1.86465560   24.94464030  -10.03148991
    1 -142.26747439 -146.90096105   40.61957661      2.65921598    8.10999228  -13.18138398   -113.38609582 -276.43720953   59.81017617
    1 -141.85705927 -146.11344795   39.02157301      6.86268152   -5.88818694   -8.80513140     16.09754766 -143.14806109  130.45342299
    8  137.36165950   62.84931610   50.37421692     29.82114997   -3.66847238  -49.38960477    -29.74389101   68.13316983  -26.37474770
    1  136.60905797   62.74824747   50.32247699     -9.25111076   -1.32422245   -1.18483024   1917.69566778   72.03442482  -87.74295492
    1  138.14263719   62.65676430   48.43398927    -20.57003921    4.99269483   50.57443501  -1013.87370046 -157.13514863  339.45279658
    8  -12.23041488  145.35314744  130.79683543     32.71697257   11.27304885  -10.57086212     42.99674305  -31.68035386   11.51354057
    1  -12.02864696  145.25842397  129.98455122     -6.69657945   -4.29477926   -6.87625404    217.98737289 -183.41240529    5.96507538
    1  -10.82605156  145.78745670  130.11755451    -26.02039312   -6.97826958   17.44711615      4.97315209  118.95955465   27.75248620
    8  104.02188639   62.28549588   68.98653969    -15.88193592   20.97798190    8.28116334    -45.42586883   71.17352993   39.49180447
    1  103.01152893   62.30362376   69.56526628      8.63985599   -4.05707640   -4.79500110   -328.27025605 -682.00280939   38.74046536
    1  103.70044415   63.58092053   69.11980950      7.24207993  -16.92090550   -3.48616224    824.11637664 -569.05373291 -510.79018746
    8  -75.44821995   15.08884133  150.57079861     -2.43297997  -21.60428320   41.60102639      3.95096097   29.76155440   53.91848592
    1  -75.18576120   13.81837302  150.78623271     -2.81184574   16.21607571   -5.71025218    194.73991956    4.99610449 -600.10136963
    1  -75.44086156   15.22675605  150.35019327      5.24482571    5.38820749  -35.89077421   -232.24817044 -794.13786670  220.54052621
    8   53.10163270  150.72194130  -91.75235293      1.23938639    3.88875274  -14.18975741      9.34693548    1.36819116   18.67328176
    1   53.77633482  151.39420136  -92.32231176     -5.83678673   -5.09284593    1.35103808   -166.06314913   60.86977039   78.36900634
    1   53.48164787  150.92754843  -91.21645700      4.59740034    1.20409319   12.83871933     29.05415937  -85.18465248 -389.27014424
    8 -123.68888166  109.47546035 -131.54651595     16.82990730  -17.48582497   22.73425894     21.51362524  -20.77384088  -17.73660527
    1 -124.25526933  108.72103064 -131.06540116     -0.51490836    4.46734447   -4.34479533   -191.70765302  218.46571877  234.55503884
    1 -122.67967996  108.84906977 -130.57501056    -16.31499894   13.01848050  -18.38946361    -98.65840248 -130.87145833  -18.42905756
    8   90.84817686 -142.19380293   77.29382360     -5.24089664   14.83533934   18.81685623    -12.77993117  -38.72848815  -20.48902927
    1   90.48322911 -141.60338005   78.52454428      5.78251915   -8.43253843  -19.33462761    -14.48480246   93.21539716  202.01897047
    1   90.72916351 -142.97907898   77.51936561     -0.54162251   -6.40280090    0.51777138    148.98042155  233.74805653  -72.63788801
    8  -97.95537202  146.39526977   58.85978347   -695.52754525-3654.23054170 1952.30691396  -3671.88216902-7682.30673804 7770.86081891
    1 -105.17637948  106.83377609   77.02553283    338.81606383 1856.05068764 -852.62468401   6368.90974082-6122.41965384**************
    1 -105.55298443  108.10000710   82.28745906    356.71148142 1798.17985406-1099.68222995   7184.16811373-5768.69190303**************
    8 -102.26764135  121.93118319   62.78773043    235.35092214 -173.07642493  -20.99645038    225.45761930 -323.81561435  -21.99658232
    1  -98.72438557  119.26704092   62.02769415   -134.37409123  100.62470997   25.70939363   2875.70015118-1690.78209590  631.99786699
    1  -99.38397978  119.87651765   63.03159587   -100.97683090   72.45171497   -4.71294325    431.28634191 -333.34862958 -497.00987415
    8  -38.80618012 -122.77290427  -47.08493939      0.82900159   24.76308608    8.97047729    -41.48932609 -107.42887956   -3.42623568
    1  -38.72006906 -121.92564660  -47.87675523     -0.72528646   -8.56246451    5.24405879    386.16246860  556.70145184  446.54293606
    1  -38.80747684 -121.79126560  -46.07939993     -0.10371513  -16.20062157  -14.21453608    -89.63012093  366.47877973  206.59066137
    8 -108.83057090  -90.56377577  -55.58670715    -67.82151510   21.04219645   74.19866097     67.73715398   36.84861292   17.57789660
    1 -109.71097108  -91.24037826  -55.91814801      8.64143695    4.88861883    0.86438788   -496.01959291 -141.52926726  761.36291426
    1 -110.61618071  -89.75530784  -53.28633110     59.18007815  -25.93081528  -75.06304885     49.91710896    1.46188734  519.01406226
    8   88.72428630  144.37502371   60.85534507      0.60175587  -12.16589507    4.02213424    -24.81998737   -6.53039162    9.23566542
    1   87.99551113  144.89318684   60.78626649     -2.92819814    0.90555890    0.11983259    254.76618937  -97.74358284   23.06638895
    1   88.42143465  143.27769326   61.27005328      2.32644227   11.26033617   -4.14196683    131.25698523  180.36341423 -160.79182805
    8   18.61398553  148.74718311   17.09835714    -17.30548979   -1.99610362   10.29922543    -14.98094659   -3.49183052   -0.46145407
    1   18.08593246  148.08410398   17.71969173      7.64781305   -1.89785580   -3.13391932   -115.50812562   53.08625125   10.68786073
    1   17.54552835  148.94523746   17.57040106      9.65767673    3.89395942   -7.16530610    344.70679212   -3.80744755    4.51193291
    8 -136.15245335 -107.93674467  131.96050711     52.25247184  -67.03747551 -139.31749761     73.48852993  -35.91980292  216.36612372
    1 -136.44549201 -108.92250631  130.64780838      0.41187003   18.99421785   28.92320489   -846.34708329  625.39335591-2790.15955196
    1 -134.60621910 -109.24932342  128.86998181    -52.66434186   48.04325766  110.39429273   -578.31934885 -448.11366810 -570.85023379
    8 -117.83437759 -111.03385974  121.55708783    -39.27521485  -22.80236248   55.46875976     35.22231746  -28.87175370   35.11292445
    1 -119.32770132 -111.58499293  122.93724620     36.55733930   15.49880892  -38.41784692    543.12972007  202.35337775 -285.28866066
    1 -117.62036662 -111.56138036  122.75886556      2.71787555    7.30355356  -17.05091284   -499.11453137  158.98076351 -256.58355642
    8 -104.55809734  -24.78265724  -22.05063949     22.08590677   -7.10508673   11.67826577     16.56306325  -15.32755774    2.82608775
    1 -105.00544784  -24.34741374  -21.85659910    -10.77137474    9.41350550    3.09606781     59.70313436  178.51616343  -59.39650783
    1 -103.71264639  -24.65232746  -21.00897732    -11.31453203   -2.30841877  -14.77433358    -49.48984024  199.07569836 -399.52475371
    8  113.71447370 -113.24368335  -74.56920806     -8.75341343    6.16081692   14.79462653    -22.85872396   20.05281099    4.78713729
    1  114.47235008 -113.69499786  -73.71317769     -8.81394932    5.31916335   -8.12114828    -94.06173406   -6.98585416 -307.61339421
    1  112.60706986 -112.51697328  -74.06939386     17.56736276  -11.47998027   -6.67347825    280.51329100 -198.46212494  200.29621618
    8   47.03320472   43.73865280 -107.11053283     -7.17469417   11.12562137   15.40044947      1.04602494   34.22776643   13.42605741
    1   46.62998436   43.03065715 -106.16732852      4.40062578    8.16227696  -10.31922186     74.03282666  -72.78916071 -131.50401059
    1   46.83531297   45.05128939 -106.74436873      2.77406839  -19.28789833   -5.08122761    240.74133913 -236.93364916  -29.57785724
    8    4.11310214 -119.37712407 -132.13371019   -131.53698702 -147.77857435  149.75510046    -15.14690381   34.91715467  171.40237789
    1    6.94286250 -122.44243107 -128.08850852   -113.66024205  122.65818122 -161.94084765    977.97946623  796.72984103  218.46220142
    1   -1.95029824 -120.00366164 -132.42882876    245.19722907   25.12039312   12.18574719    194.29073762  906.92264679 -869.85336226
    8 -107.73969614  137.15206624   50.53178639     -7.83388588   19.89083730    1.61824423     -0.54795297   29.12576087  -27.41212495
    1 -107.70388670  137.49566047   49.75931071      3.05730183   -3.90381064   -7.42614958   -134.06548981 -266.97946393   34.66395502
    1 -108.18222027  138.38398855   50.43247417      4.77658404  -15.98702666    5.80790535    174.21682039 -158.44245828  406.65611101
    8   34.88385268   93.04861186  112.05379099     -2.66607080   16.40977128   -8.20956406    -35.39725094    0.59823198   -5.65064917
    1   35.74564644   93.36960731  112.08602916      1.86961046    0.02944914    0.38073348   -108.45068917  426.33649566 -242.19165404
    1   34.87430184   92.52410480  112.29619984      0.79646035  -16.43922043    7.82883059    322.87100527 -319.08105055  127.99912818
    8   61.74397483  -67.29909436    0.96036416     -0.41393942    4.05034249   -3.68346529      4.98556057  -29.81736868   21.92121300
    1   61.49828550  -66.49864115    0.22112117      2.82404924   -5.26026669    4.94136938   -363.57247593  175.29996739 -259.69046734
    1   62.73996485  -67.39740711    1.11771925     -2.41010983    1.20992420   -1.25790409    538.86359606   77.97358447 -112.85423625
    8  -83.63704779   76.34957051   29.30024395   -283.32276406  107.63654210  149.97934549    -18.02978699   18.79026964  -73.13765696
    1  -83.48514846   78.07891894   33.51489992     -5.30648552  -65.58881360 -159.67437256   -457.23819456  251.83606412 -427.12672336
    1  -90.60208283   77.36151842   29.05974295    288.62924958  -42.04772850    9.69502707   -557.83353017   93.11126263  -73.93815490
    8  -97.83935883   99.03694153  -96.91951736    427.02508843  -44.64201741 -159.93923760    -28.42912165 -148.48639569 -214.57086524
    1  -91.48109818   96.42140023  -96.88671829   -262.72013705  107.41275397   -0.53834092   -222.86404851 1071.79502750  296.75897560
    1  -93.77234507  100.61623984 -100.92340511   -164.30495138  -62.77073656  160.47757852   -487.47607967   62.02213312 2161.03115084
    8   12.00485209  135.39722437  -93.34544637      3.22571279  -16.97841920  -19.93238786    -16.31003612  -36.33953763  -19.89643295
    1   12.44055247  134.24786088  -94.15318818     -6.50641430   18.74653965   14.66979972     19.41046671   31.05416851   58.61066297
    1   12.27863875  135.45987911  -92.55995559      3.28070151   -1.76812045    5.26258815    120.63515973  163.45800121  161.52966567
    8   -3.71877546  140.30432548 -146.99159173     -3.63492085    1.96762693   -2.36902849    -78.47367086    1.82922527  -22.88257938
    1   -3.23006222  140.71447198 -146.43351735      1.76440509    4.53771050    3.10023753    -22.18353801   70.67773236 -361.82974483
    1   -3.28938833  139.60968629 -146.87585569      1.87051576   -6.50533743   -0.73120905    556.25586085  247.03803303   54.58471521
    8  116.91877499  -82.52333563 -109.47468616    -10.40193501   20.88298142   12.27225016    -22.68984945   13.24904124   -3.56914051
    1  116.69146269  -81.37131075 -108.53063387      6.06929458  -20.65559212  -15.39029007    641.32635319  -34.63884253  429.75181352
    1  117.60068239  -83.08921846 -109.49894731      4.33264043   -0.22738929    3.11803991   -399.48534660 -385.29416034 -443.72815540
    8 -126.31259199  -60.67439415   32.76716103    -44.99016588  -12.85620365    2.29855345    -50.38828770  -17.32073948  -16.35727204
    1 -126.11147155  -60.52635285   32.68979076     23.47021584   20.91537201  -11.72496389    886.95473678  209.21553418   57.44836114
    1 -127.57225018  -60.16864275   32.19019463     21.51995004   -8.05916836    9.42641044    -14.34825045  -59.58165911  596.78200137
    8  -37.47416935    2.63994395  -80.41505747      0.05918784   -9.88917303  -11.86218905     16.75105949    6.50770871  -30.08565474
    1  -37.11011733    2.80325334  -79.49757668      1.19915395   -3.67811756   -2.08498210   -174.42289153   41.74910427  356.12108881
    1  -37.26440032    1.59798684  -81.26255529     -1.25834179   13.56729058   13.94717115   -121.05339143  -51.37585394   28.39483861
    8  110.43036462    0.77938763  105.84434125     35.63647907   -3.42277296   54.00413017     39.55187944  -45.65667656   61.19285256
    1  111.75177432    0.54727082  107.60171073    -37.79609335    8.41941944  -46.11784437   -614.40602427  -57.29220165 -489.91870893
    1  111.12249841    0.26728046  105.85488439      2.15961427   -4.99664647   -7.88628580    404.90067313  995.86187598 -630.66685842
    8   94.76063277   33.66505658  -83.76445715     -3.54032981   -2.08491269  -28.66462903    -13.49019185  -20.29012911  -10.77993023
    1   95.23151527   33.64211409  -82.88556367      4.17274283   -1.45675338   -4.45884364    170.90678275   52.43536747  245.83658008
    1   94.96568384   33.45001380  -85.38525801     -0.63241302    3.54166607   33.12347268     80.61435142    2.60566677 -164.64394876
    8  -70.33694552  146.69190077   41.57756010    -44.06678806    1.02424556  -13.06519996     20.68472628  -11.04530940  -13.02372332
    1  -72.15050731  146.69935920   41.05039588     42.84122709   -0.81464881   12.64685848    273.73732306  -97.10386355  138.42700228
    1  -70.16359793  147.60703650   41.34992672      1.22556097   -0.20959674    0.41834148   -609.17649055  133.98294910  342.18905172
    8   43.00095088 -133.51861517 -112.33988947      4.05053865  -18.31093135  -11.80817537     17.79554807  -10.37573824    5.34987449
    1   42.83347510 -133.05484946 -112.15391523     -4.89473426   17.76029736    9.76939493     25.98201660   81.22191607  -36.55602902
    1   43.58735753 -133.97054172 -111.78348788      0.84419561    0.55063399    2.03878044     22.34212344  -67.76600104 -522.21637903
    8   97.07111412  -41.47476909   -2.47343923     39.90922558    4.25274403   47.81618090     -6.03795421   41.46608405   43.62875629
    1   97.82825135  -41.26676100   -0.55705141    -20.69936999   -5.25611419  -48.97887601    -18.99689065 -100.01602568  -48.94980675
    1   96.51328644  -41.46260497   -2.57420556    -19.20985558    1.00337016    1.16269510     65.35921644 -524.60490248 -607.34094649
    8  -53.70526760   68.82647698 -130.51239687   -100.28678243  -25.80031257   16.19182105     38.91529412   61.69258902  -44.54387809
    1  -54.66662601   67.61231792 -130.28321097     22.09138767   19.25822973   -4.60534195   -436.55081734 -785.82506266  295.25887906
    1  -56.28568567   68.71684251 -130.13817649     78.19539476    6.54208284  -11.58647910  -1419.39785012  223.95671105  461.94190623
    8  -33.49089649   16.36482059   17.90291592     22.52381162   30.44864395   22.92797074     -3.43724662   14.31785794  -48.87357856
    1  -32.67202610   17.54641215   18.81823161    -21.46973370  -24.07176614  -16.42888402    -14.13286870 -348.19854487  649.13389803
    1  -32.54071107   16.74659194   17.88098208     -1.05407793   -6.37687782   -6.49908672    309.25221424 -290.62806047  295.89317219
    8  110.53626799    6.75704129    3.82104408     -8.72315182   11.09673150   28.94658144     -3.94426139  -58.65299925   25.32099880
    1  110.89911060    7.60564304    4.86853226     -2.01623716  -11.72049924  -17.85874801   -102.17625808 -151.28355739 -258.13440255
    1  110.74001117    6.53220301    3.20396981     10.73938898    0.62376774  -11.08783343    -66.75665159  656.25073392  -35.87798214
    8   88.17254287   28.99125159   34.30047493    -19.48984167   25.90848533   -7.11615769     44.13506040  -77.78295375   24.16403355
    1   87.20940133   29.86010518   33.53481730     16.76714426  -16.80811396   11.63650402     20.84745787  136.39077851  153.97230926
    1   88.08357048   29.88377862   35.04696906      2.72269741   -9.10037137   -4.52034634   -440.65626051 1062.28906240 -576.00996344
    8   14.48082069   17.21266467  -34.96270476     -1.43000465    6.17422186  -25.54071415      6.69938723    7.18258747  -15.38198637
    1   15.45288535   17.29572736  -35.80778072    -11.22196799   -1.34313773   11.39037328   -175.21979080  -29.70171765  141.02261580
    1   13.53758079   17.54331520  -35.89207780     12.65197265   -4.83108413   14.15034087     66.38449024  -85.71376145  101.56264449
    8  -81.84502145  -95.09959171   -9.03592006     13.63754547   24.77494721   23.19974135    -13.82061116  109.28913451   74.88004313
    1  -81.29768032  -93.71396813   -7.43573509    -12.40793221  -36.39000097  -44.78845752   -685.51138649  582.63097795 -320.35278918
    1  -81.55363401  -95.63590681  -10.36243692     -1.22961326   11.61505376   21.58871617   -155.03227566 -406.51928467  -86.25037886
    8   55.73145936   94.68684799   19.92956154    -13.54932844  -12.09846394   -3.75079318     64.05546131  -19.59601650   10.74306105
    1   55.62861023   93.85015287   20.56677122      2.69980945    4.70459623   -1.30266930   -455.17469283  -35.03809918 -119.14483662
    1   54.75935290   94.18797123   19.33056080     10.84951899    7.39386771    5.05346248    -51.87956951  151.62116030  209.42337116
    8 -150.74382322 -107.06288170  142.59003536      9.24217289    5.42286718   49.90471392     -1.50794175   11.70343555  -17.13814253
    1 -150.38345679 -106.85575479  144.52077189     -9.65431333   -4.38745539  -47.65742119    235.51315735  -61.94944553  -25.10758263
    1 -150.07995108 -107.71509777  142.52667253      0.41214044   -1.03541178   -2.24729273   -204.33026749  -31.06359288  157.28991837
    8 -146.99049987   60.65322698 -139.35659856     -4.21315752  -32.78809103   -4.15064938    -18.01304991   25.84010166   17.87874640
    1 -147.12895765   59.02059461 -139.71109418      3.38663682   33.77295380    6.25042162   -120.81933424  -71.22745218  -89.21727439
    1 -146.58052790   61.19675664 -139.99266172      0.82652069   -0.98486277   -2.09977224    125.78703463 -117.09681566  -39.62367713
    8  -44.31348556  -92.22018274 -131.70808760     10.99995568    6.27519648   -4.12299900     48.72242875 -133.02077068   30.90512564
    1  -44.72405055  -91.42384713 -131.61084925      2.69903403    4.57461143   -1.17847820   -950.87796099  230.13866700 -130.92357541
    1  -44.86740283  -92.36489295 -131.50988412    -13.69898971  -10.84980791    5.30147720    381.40438120 1891.26991340  183.88250018
    8   71.16849563   -3.91405793 -148.95728350     72.34493754   88.98367301 -120.96195141     -4.68510133  -42.91293154  -71.20092106
    1   70.42303150   -1.83349097 -149.41941651     19.57628814  -57.61031252   13.83075708    641.47553637  454.63566504  648.34911325
    1   73.70332324   -3.07301804 -151.89779722    -91.92122568  -31.37336048  107.13119433   -290.77405288   37.89354021   56.36500265
    8  -10.47354678 -102.95060206   64.41457710      5.24985064   13.88200019    1.89665383      4.17530316  -35.60127599  -24.85307150
    1  -11.10899160 -103.09637813   64.09921318     -9.67494064   -3.05024037   -4.75511637    122.29531610  247.47940823  115.74714264
    1  -10.17456760 -103.56315143   64.60103831      4.42509000  -10.83175982    2.85846255    -90.08702527  322.72749021  107.34037420
    8   92.25982245  104.57308604   63.52456783      7.69228525   21.29098095   11.95293761      6.98991681    9.83269951   -8.55277086
    1   92.53485707  104.07343960   63.62752197      9.40733611  -14.99302271    4.06099822    -62.73661184 -127.66468779   99.60370526
    1   91.95177967  104.42590253   63.22740521    -17.09962136   -6.29795824  -16.01393583    -46.01673948   -5.91572321   37.07797273
    8  122.05820747   17.09890760 -149.45966308    -52.71977161   -7.66033358   20.70026746    -23.34925030  -38.87174153   37.52662478
    1  121.43398386   15.57500165 -148.57876092     14.72383810   35.56505019  -20.60965496   -358.28320912 -551.65325128  300.85740619
    1  120.49744918   18.25139194 -149.45871044     37.99593351  -27.90471661   -0.09061250    418.42574912  463.16095977  195.82657296
    8  150.07102986   67.39968826  -85.90075035    -60.83291230   -5.91720655 -124.56471636     -3.99198371    5.80699098  -11.51388910
    1  148.91871989   66.30417709  -88.67210546     39.31729807   34.98552987   93.55737004     34.25287939  306.08465235 -149.46228395
    1  149.21269427   68.68753161  -87.08405862     21.51561423  -29.06832332   31.00734632   -154.24987485 -639.36031375  568.37331860
    8  -84.60513184 -102.25100613  -56.31156384    -18.42289340   69.18313299  -54.90562324    -23.56038916  -42.39575125   49.33731744
    1  -85.18804653 -100.46641641  -58.01927319     16.53339239  -55.70211733   48.80783026   -369.41801820  252.92577751  477.71370787
    1  -84.55778424 -101.02001089  -56.27338274      1.88950101  -13.48101566    6.09779298    603.59507113  134.09189587 -873.49047107
    8   -1.31966164  115.80956288 -141.90768166     40.14432692   24.04448623    3.44686427     60.79358206   58.34462388   45.20541274
    1   -1.35786961  115.65296257 -141.91002391    -45.40548230  -28.16277147   -3.89180981   -551.46257635 -574.74923615   58.06187722
    1   -0.60788198  115.21973830 -141.83943612      5.26115538    4.11828524    0.44494554   -173.43253699  209.10099069 -591.47382819
    8 -124.99566020  -21.05463630  -10.08038093    323.19494113   93.42036477  211.21613179   -284.04514926 -253.50054740 -184.63931866
    1 -124.73909213  -20.66990557   -8.90063390    -10.04220754   -4.65240545  -12.26463936   1571.47792530 2804.21083720 2039.56890640
    1 -117.66690212  -18.98571292   -5.45207451   -313.15273359  -88.76795933 -198.95149243   3195.28441991  981.57316327 2116.65167315
    8   69.95880191  142.17538572  -80.80745085     33.85319538  -12.09485887   -4.82985309      1.18143581   -3.48584047   11.68492999
    1   71.52806786  141.85526827  -80.89192922    -29.83429481    8.34581846    2.91581940   -226.77320536 -174.65050403   -8.72115926
    1   69.98428278  141.26920278  -81.33100569     -4.01890057    3.74904041    1.91403369   -110.50178040  104.63842912 -230.28144370
    8  -74.45323940  -38.66877122   67.82610427     28.20162051   29.99793269   -4.84588834    -32.49231219   -0.57200068    6.33205707
    1  -73.58748417  -37.76960064   66.69230247    -18.31342476  -19.04376327   22.91815245    460.19607741  375.52048126 -222.06599865
    1  -73.87307819  -38.02400960   68.97971312     -9.88819575  -10.95416942  -18.07226411   -574.98267854 -309.26403439   -9.04562464
    8  -43.17595471  -59.04000106  -23.24822495     35.95585210   13.99780188  -51.36546189     28.77432631    2.80700943  -53.29597768
    1  -41.81369813  -58.23978138  -24.79231513    -37.33310945  -22.66655290   41.21968259   -661.53315042 -208.25677432  405.83262534
    1  -42.97571725  -58.50790248  -22.85783952      1.37725735    8.66875102   10.14577930   -379.80068958   40.36231446  197.21915166
    8   -5.66743696 -107.62999460  -21.44362519     10.24620888  -25.03727517   -4.95677301     25.89298528   56.42116949    2.77717729
    1   -5.94367363 -109.10350909  -21.97206116      5.96466798   27.93686928   10.21463314   -547.75269783  336.03239469 -508.53773865
    1   -4.41764376 -107.47256597  -21.05863991    -16.21087686   -2.89959411   -5.25786014   -333.63325132 -547.82065152  112.44665361
    8  107.81896168 -119.68528815  147.98952626    -67.32470500   25.06828236  -56.21159699     37.84497489   36.88952576   11.48998524
    1  106.97222938 -118.27642437  147.00425726     22.76704791  -31.50112692   24.86825516   -434.07578133 -105.27918055  314.08094276
    1  106.11429938 -120.05264309  146.82126686     44.55765709    6.43284456   31.34334183      7.42218127 -844.95187264 -196.18133584
    8   47.44974877 -108.45176365   23.92188803    -26.37236426   12.34531978  -59.79773871     81.94873403   34.18609607   84.06566597
    1   47.11627330 -107.87260424   21.85524753     10.62418551  -15.04880364   55.30066730   -676.21734994  267.25634047  -48.58425767
    1   46.19159217 -108.73980306   23.78580471     15.74817875    2.70348386    4.49707140   -316.72721759  495.65680994  668.36362067
    8   90.27613725   -8.52660974  143.29294034    809.53035294 3718.92443340-1710.37311903   4050.66260699 8154.43394716-8116.88408034
    1   99.27159456   30.70922370  124.26748145   -422.01484286-1841.43873867  892.55766192  -8407.06756150 5542.0466048016270.18784510
    1   98.53138017   31.48618868  125.87117682   -387.51551008-1877.48569473  817.81545710  -7522.04490972 4714.3932254915902.64830274
    8  138.07534938   84.73799541  -65.84660841    -76.09124472   25.88687521  -30.64805777    -12.64368647  -11.31592967   16.33487955
    1  137.54432149   84.32434095  -64.72043115      6.95711718    5.34279918  -14.58162696    -20.44563218  153.65749122 -389.43130771
    1  135.88527267   85.72789797  -67.28075069     69.13412755  -31.22967439   45.22968473    119.69848186 -204.33382519  229.80556034
    8   32.66006107 -111.92985920 -102.16478273    -82.67225511  -56.64534694   -3.95819744     88.71171865  -86.05779449 -169.37788144
    1   31.48828939 -111.42355005 -103.10082883     23.44405627   -7.81389634   17.17114425  -2810.67846355 1220.24278097-1820.58443133
    1   30.81042601 -113.98867436 -101.72135904     59.22819884   64.45924327  -13.21294680    257.77312075  149.30678881  -90.71143589
    8  -15.07624105  -87.19487453  -93.34924385      1.92224103    7.66778958  -34.30479722    -13.29882079  -54.90690337   27.17416477
    1  -14.88896964  -87.69155045  -94.28257293     -0.04808896   -4.22327286    8.66621029     78.14264478  214.37107667  -37.09366063
    1  -15.03586605  -86.68592154  -94.74358576     -1.87415207   -3.44451672   25.63858693     93.21515811  522.99600079   65.92436458
    8 -142.98247247  -62.14587093 -152.07197736   -115.12282595  101.13722520   -4.12828330    -47.38432875   27.02049926   48.58294489
    1 -145.05937363  -60.00193357  151.38853968     69.99994284  -70.78836137   23.45790426   -404.08771111  409.45651895  -63.43499309
    1 -144.65176962  -61.09083619 -151.20425941     45.12288311  -30.34886383  -19.32962096    979.82697558 -727.61380101 -494.30245195
    8 -133.92580614   23.58397305  142.73694635    -16.22370577   -1.68972776  -18.36779934    -37.37409476  -37.03789156   -7.64189809
    1 -134.42271314   24.09181199  141.73981071      7.77509408   -1.88797337   10.89761566    126.76401449  224.99865013   -7.85886302
    1 -134.75813970   22.87519518  142.27770371      8.44861169    3.57770113    7.47018368    209.07787626  242.01082802   91.69609933
    8   29.41636707  126.16971186  -71.18652514     25.61255797  158.94309902   16.85255006   -267.81865361 -164.53405551  322.49381949
    1   28.10979380  126.79076903  -70.23614194     27.40103669  -14.73162430  -20.28509694   -632.13819508  848.94582941 -882.88190069
    1   30.86546361  130.06957972  -71.28907567    -53.01359466 -144.21147472    3.43254687     68.07923398 5211.67025935 1396.72221028
    8   49.22281326   82.92398424   32.54940060    -27.05949323  128.05203555   -5.32988737   -102.89572495 -163.03579329   84.11925994
    1   48.36274511   86.37850363   32.25500386     32.04054896 -120.62878460   12.60481927  -1634.64120680 1721.54088099  -45.12585713
    1   48.71807633   83.56419655   32.09496754     -4.98105573   -7.42325095   -7.27493190   3937.19722841 1173.42979237 -169.86033444
    8 -122.30607969  112.98131375 -104.67916663     53.58592028  -26.57304095  -13.97615613    -17.14499351   35.29781048   44.79220717
    1 -120.66643333  112.40531131 -105.85225466    -43.19196399   15.56455136   29.67131310    446.01645388 -209.23321932 -246.90590757
    1 -121.71731867  112.29600658 -103.59601679    -10.39395630   11.00848959  -15.69515697   -543.86204730  -81.44374948 -129.74804736
    8  134.84047105 -110.41955387   32.60216435     -4.16959269    1.56739592    3.76135631     48.29421710   33.84539913  -39.53372260
    1  134.46404242 -110.30213601   31.49448869      8.58326588   -2.96628335    7.89546168     80.85108946 -304.45458640 1032.66106959
    1  135.69379318 -110.71465203   33.37513137     -4.41367319    1.39888743  -11.65681799   -332.13640290 -174.96621110 -135.32483489
    8  -37.48947176  143.73518512   38.64044520    -62.81135951    8.84808992   91.88075169     81.96080489   20.44881622   -3.08985062
    1  -39.00199892  143.53673402   41.34199418     51.17777112    4.81387611  -89.15054227    112.26229213 -200.11145289 -353.07766325
    1  -37.05607990  143.47337270   38.24504792     11.63358838  -13.66196603   -2.73020942   -940.12808660  -31.54291976    8.70691386
    8   80.26300079   25.02135285  142.30645981     15.73999510    3.81039848  -13.46121193     -9.40534544   16.53132050  -21.72546792