 BEGIN_INFO
   #
   # This is a XCRYSDEN-Structure-File
   # aimed for Visualization of Fermi Surface
   #
   # Case: Tight-binding calculation
   #
   # Launch as: xcrysden --xsf HICOLM.XSF
   #
 END_INFO
 # estrutura final
CRYSTAL
PRIMVEC
   14368.19634534       0.00000000       0.00000000
       0.00000000   14368.19634534       0.00000000
       0.00000000       0.00000000   14368.19634534
PRIMCOORD
  300    1
    8 2063.03160977 2342.95427105  956.06894747  ****************************94123.45434974   3421.22240248  847.27459230-4959.25027151
    1 2005.20501576 2308.64511795  987.67597907  63131.9213400837456.07058672**************  ****************************11950.06958359
    1 2046.07295871 2348.34151720 1010.88045627  18447.08984449-5857.37896493**************  -5530.5304980018032.9680191466978.88962834
    8 2207.26943371-4652.14096361-1383.31824036  ******************************************  -2158.69232587 4361.42701373 3023.64875278
    1 2085.55323570-4586.53654585-1345.23204901  ******************************************  64474.79902323****************************
    1 2168.58780170-4768.17280931-1470.90987036  42509.68217357**************96260.08150546  ******************************************
    8 5568.33913285-6643.33802217-5312.29876451  **************23937.3892613698864.42713218   5104.56162661-6120.03603016 7772.77190305
    1 5430.67967983-6618.98832193-5237.59967210  ******************************************  23043.99954485**************10877.65320483
    1 5553.40735295-6646.02106911-5296.46242029  15801.63213752 2829.63840837**************  ******************************************
    8 5016.98234102 -542.31612670 5253.09075400   3273.9377826074692.5812983912920.05082347    356.49582133 3242.54926167  781.76546226
    1 5049.00491639 -518.17030738 5284.90872008  ******************************************  37376.35145992**************27066.94985829
    1 4988.03036800 -497.72520253 5233.21414708  31480.82383557**************21612.69776813  ******************************************
    8  580.76863880 2775.51995690-4185.07073295  ******************************************  -1434.02191242 2460.34859956 5453.91320556
    1  547.51724302 2791.35169591-4056.32415978  36513.22955200****************************  26710.52159925****************************
    1  577.31614011 2605.80265621-4167.60876433   3797.11921459****************************  -3911.18536393-6010.8125933815131.04962378
    8 2011.71644375 3389.93936821-1786.15485423  -2678.02895057************** 7523.71841053     46.11491137-1910.74927078 1839.79916773
    1 2008.71163377 3362.30047556-1775.25311316   3213.4350981629591.86728221**************   1777.5797764933105.75635425**************
    1 2012.22322559 3406.72474898-1790.10760380   -535.40614759************** 4140.86273383  -2508.98181336-3103.51763266-8192.02208752
    8 4842.34512728 1541.33149779  408.61903238  ******************************************  -2474.71899652-8493.89897039  612.16668742
    1 4814.83781601 1466.23458381  376.66844646  30085.0036744482135.4965429034941.75132879  -2302.82188395**************12830.67747268
    1 4807.18826402 1423.17755310  417.33691568  38582.70356899**************-9565.12075008  41691.65225158****************************
    8 -225.55880368 5093.14092765 -851.32353969  ****************************-2393.40162250  -1765.9196899113682.83045702-5469.36282582
    1 -303.83376209 5167.96357371 -833.92487478  85816.35931635****************************  99860.12460975****************************
    1 -213.84542208 5116.38732978 -871.31745723  ****************************21467.96501543  ******************************************
    8-1544.71421104-3400.81226527 6694.77686879  ******************************************   1741.66418041 4750.39268514 -566.55389042
    1-1506.43022000-3302.95322896 6635.49884873  ****************************65040.88650486  ****************************18264.87347650
    1-1623.33783487-3520.95019016 6636.89620375  86420.16793888**************63619.80791938  14558.5572813634773.56998023**************
    8 4271.82562751  106.46979940-1067.43905349  ****************************88262.57845459   -654.47363243-6161.45417776 4536.55645203
    1 4298.75131224   16.40809243-1010.25612038  **************98742.23120568**************  -8048.14229103-6757.36408645**************
    1 4039.20477868  -63.05559213-1044.24443515  ******************************************  -6277.3655117794004.68439295**************
    8 5442.69419136 5702.93635154 2199.97365731  ******************************************    592.33632154 3991.01931944 -338.17072517
    1 5563.82932929 5662.44282906 2272.79629910  **************44493.99953020**************  26324.81585894-7958.4145490823393.93300850
    1 5457.08634184 5849.56314222 2258.42837166  ******************************************  ******************************************
    8 3175.33473348 6645.53464587  306.07296225  **************40502.87175502**************  -1784.19110465 3776.42806869 -703.61312613
    1 3102.15052972 6645.55656220  302.78000621  79884.35892479  -23.72194526 3594.39581634  **************************** 7067.05329038
    1 3188.61949651 6683.02544167  299.81930212  **************************** 6752.11553060  64901.30437232************** 3822.06439931
    8-1888.52505482-3482.35241504 4919.85822990  **************20918.89642433**************   -959.05136201 -265.22639171 3864.39920147
    1-1936.73055333-3370.93876460 5043.65699639  53021.05083296****************************   7752.42999190-9696.59995248**************
    1-1912.87461100-3574.75314644 5062.12156865  26780.37974646****************************   7536.5196075213819.56752729**************
    8 3223.17344135 6964.69274938 6784.64535720  ******************************************     88.10452671  -25.42086973 -104.29838761
    1 3177.24137123 6940.09657071 6771.88377016  49893.9954324526718.8190282913863.14400111  **************11159.7249947313758.12720662
    1 3248.44349137 6927.14955505 6753.82361103  **************40797.5095663733493.27819391  56051.22902318****************************
    8-7016.38089336 2894.42462474 2028.29158547  51838.3690529972184.98683500**************   1543.98856683 5344.5968261612695.62189774
    1-7038.46761023 2955.39091788 2101.46868076  24187.51565620****************************  ******************************************
    1-6947.21070394 2899.35231886 2165.70560016  **************-5416.99825087**************  -7166.44206361****************************
    8-3064.20900602 4560.90820413-1956.95003800  **************26896.43049367  147.10246002  -1249.66113059-1444.68699155-3166.77001046
    1-3062.56039465 4608.47014175-1915.31437909  -1797.52012668****************************   3204.56337142 5290.29299426 9147.00028498
    1-3078.42148713 4537.94614621-1998.62795415  15414.1078472924909.4705629045206.61583289  16747.9862672617839.0622371641450.05337117
    8  -44.19207573-1983.60250488 5907.67253846   5999.1708421030333.69598275**************    213.99759413  503.47764049 2129.71513788
    1  -51.11760360-1959.94056413 5955.94166336   7520.96433598****************************  34467.10182446****************************
    1  -31.72571491-1979.33938321 5955.86353803  **************-4628.44166340**************  **************30023.86396311**************
    8-6447.51683750 6529.66985857 3099.32118828  ******************************************   4511.86818364 -360.85794938 -250.60880068
    1-6505.30402523 6527.42242091 3088.62381446  62871.90747104 2447.4847289611642.20160564  **************15189.7788317320072.69571706
    1-6544.35857335 6484.00220092 3016.34750089  **************50150.8131725491119.50655079   2538.19072056-9624.16392696**************
    8-3137.71038222-4950.46961493  281.14239250  ******************************************  **************20864.7088819429609.09301139
    1 1255.83489662-5211.68365443 -163.99093266  ******************************************  ******************************************
    1-2987.91935029-4934.73776165  287.55016645  ****************************-7040.60538779  **************44275.6695154325080.36673665
    8-2080.25570104 1203.77399971-5232.12656172  ******************************************  -1468.50759387-1988.08191555-1628.35265283
    1-2097.58109894 1178.54377352-5246.07737365  18616.8891964827108.0282404514995.17082334  13632.9056616241248.76075854**************
    1-2110.04195088 1200.01013664-5315.65154497  32589.17406544 4119.7579204391382.22000863   9808.75075184-9264.5327526640901.20107568
    8-1422.42621486  718.36374870 5398.87448819  ****************************26616.38838726   -859.76835843-4602.46158497 2483.52702784
    1-1415.87330683  693.78232190 5394.01709797  -6980.6945631626181.86849363 5175.53993072  33316.0810363716453.56339255**************
    1-1441.41781610  726.59373193 5428.40346538  20447.25427590-8862.26566951**************  **************56728.2221583619197.53289984
    8-4070.71419852 5498.89765467  999.96241852  47982.3997571794751.72860209**************   2120.65098380 3716.34831333-1448.59099522
    1-4004.43049709 5557.08626463  999.67639946  ****************************  313.38200175  ****************************12174.69752161
    1-4093.30688216 5527.53148855  962.12381406  24531.64833317**************41087.41889839  ****************************10972.35174001
    8 3269.59734549 3079.34201812 4240.14780716  **************96970.81369864**************   -964.68758642 1393.59881931 -399.57611251
    1 3261.24638621 3137.53317120 4226.89609157   9092.85043819**************14423.79154546  **************************** 6522.63017590
    1 3225.66289645 3110.29148524 4230.07627090  47738.79134008**************10944.63116835  46449.0601037615438.59057305 -126.45081643
    8-2096.92211286 4433.86106956 2937.43456237   6262.48626927  356.82367716**************  -4644.15896593-1495.53346075 6044.30485986
    1-2099.21022585 4427.65534200 2924.59628996   2363.91088399 6409.3324826913257.74815817  29756.01821148 4039.43406941**************
    1-2088.37066684 4440.56791462 2936.77579112  -8626.39715327-6766.15615985  662.98921088  44082.9017845019744.63345182**************
    8-5284.56943323-4154.43441471 3582.70690227  ****************************22077.33659706  -2704.18809981-1245.11120770 3853.76415289
    1-5263.99278248-4146.26960162 3620.42350976  **************-8833.71070741**************  60561.6143913426513.30531097-1493.31723237
    1-5328.17328485-4173.37557350 3565.45399258  47312.5444209120552.1163142118722.96192760  **************-6730.02738974**************
    8-4803.93114347 4724.89412177-4548.79293317  **************-7843.4363581712917.56834455   -992.26686448  269.79099497  146.76852517
    1-4727.05211188 4721.34748537-4542.16670290  ************** 3878.65471750-7238.07541221   8002.4999187710847.9692215614995.78139741
    1-4743.99954965 4721.24599028-4543.57461313  ************** 3964.78164067-5679.49293234   7063.42135114****************************
    8 1464.50040825-5952.54212983 3579.31939609  ******************************************   4540.9655230217772.50478098**************
    1 1425.24799656-5921.08858227 3533.70088784  42801.36642713**************49743.09294605  -7200.11004915**************87446.39894908
    1 1459.54437507-6053.89806031 3544.56545956   5432.53374579**************38094.99469216  ****************************88255.82639352
    8-2799.96876217-5196.86008189 2633.77002667  ******************************************  -1005.70319055 -872.65389939  986.03515857
    1-2792.25528251-5206.05283738 2724.69216048  -8440.9049349710062.17913123**************  **************-8324.58480739**************
    1-2826.39242614-5224.70159776 2653.36751007  28574.2108243530108.18574653**************  31841.5964873322271.3315148016345.92747393
    8-1954.95955212-6842.94449171 1029.71951716  ****************************92739.81344737  -2102.05528325 -506.29975089-1389.81658311
    1-2083.37556041-6766.32554369 1009.00128029  ****************************22769.22814292  72072.62608026-8411.5788912534546.45612551
    1-1855.20503225-6769.44260204 1134.77698165  ******************************************  **************16516.24172059**************
    8-5980.18165570-5966.73241999  941.91660356  **************17609.9887432317174.13021730  -1436.19456809  325.17802160  530.24823477
    1-6014.27090943-6023.68013270  970.63185439  37202.2919916962151.81133890**************  11894.62864865 -354.49584499-4813.73084135
    1-5984.51507644-5893.67436023  928.94367326   4729.36196551**************14164.15330709  10969.51735445-4588.90940729-3498.31045360
    8 6387.57179947-2862.88275657 4968.87869325  ******************************************  -2917.06019199-3144.82859224 4066.43569349
    1 6316.21747008-2934.97199868 5063.18608461  78374.6319969179179.72660227**************  68228.3249426862692.84430488**************
    1 6310.86403986-2933.19554738 5056.00822882  84238.5532118577217.73298384**************  ****************************10241.79259671
    8-6034.72591383-6431.35145290 5693.40098267  13204.90915793-4574.1797732685235.09005148   -373.30495038 1426.12512420-2884.61940447
    1-6027.73573050-6483.04904217 5761.16339676  -7644.5643468556538.00027314**************   4088.59121471  948.4314130923970.00371546
    1-6029.59879931-6383.43733459 5703.66312901  -5560.34481108****************************   1766.50544011**************21598.57061320
    8-7017.88218524 1690.15605662-3634.77903154  ****************************46785.95227843   1530.15265894 2703.18449637-4144.43133772
    1-6972.63088744 1702.43391939-3548.61205546  ******************************************   4106.44547281**************55165.11033070
    1-7106.87365796 1628.34270441-3678.15786468  97617.3716880067804.5957048647584.50520084  ****************************10849.58651165
    8  546.13446118  743.02291289  919.10577062  **************-9261.89764721**************  -2067.71228191-4832.24961667**************
    1  346.54684546  712.51399822  899.35614720  **************33582.3694001821740.44826775  60992.2156002620288.3044360944368.38129449
    1  461.73309227  765.25354552  900.53205738  92347.72566153**************20321.49995995  **************13112.40240718**************
    8 6612.00440613-5166.58254773-1226.88599244  15710.5047890277729.4685389353087.25445193   1458.00298469 4321.37720653 2732.43882971
    1 6577.11008966-5148.40481612-1195.70214160  37856.94942078****************************  ******************************************
    1 6661.06900879-5113.45163725-1209.24986165  ******************************************  ******************************************
    8 6155.62546766 3782.76828506-4278.06515813   3713.85580561 4130.02631372**************   -751.14420443   89.66490158   67.43223352
    1 6188.48616438 3773.61126738-4255.18491292  ************** 9892.77641553**************  -5958.31606729 4782.36976651**************
    1 6126.30717391 3795.70675701-4313.52798630  31780.25668025**************38433.95499374  18214.10067787-6188.4905508512497.67189035
    8-2884.81065366-5575.01551784-4913.83203722  25279.05533522****************************    828.96612839-1821.17081660-1134.57597573
    1-2893.94797668-5625.07965271-4939.00389327   9932.4371826654437.9133759627371.34962134  ****************************  283.63961325
    1-2852.31314662-5603.54683115-4932.86159883  **************30918.9270625920621.34334220  39276.9144871545427.6930043518246.63542449
    8-3752.86659718 6712.21316133 3996.42728052  **************29258.93125390**************   -858.98061015 -143.01557993 2713.64461807
    1-3788.33474904 6771.60803449 4076.53860899  38873.10120228****************************   2740.13225213 5813.14014675**************
    1-3754.87415248 6679.12341817 4028.53920769   2174.8821222835837.26922496**************  10728.56334784-3709.00335851**************
    8-1870.45338492 5900.65326668-4171.01895449  57233.82290606************** 8997.70383911  -5369.03428748 1541.75920024-2774.14397709
    1-1825.25539701 5890.70219019-4194.37144074  **************10802.7533813425350.85480178  59186.66239399****************************
    1-1862.85092080 5894.75897667-4139.04589551  -8167.62159602 6332.30685490**************  26227.90883702**************65777.94184715
    8 -710.45494096 4450.06623510 5624.99908260  ******************************************   3596.69269167 -146.67658437 2289.50257681
    1 -554.60872009 4375.91800528 5607.73530437  **************81555.2948742218988.01228807  **************21756.90473082 7947.19132507
    1 -644.32450717 4507.45077682 5771.91536511  ******************************************  ******************************************
    8-6916.61359717 -559.53413145-5784.07055292  **************  944.9674022817304.30295552  -5178.47834637 -524.52801822 4766.92425316
    1-6916.54109277 -522.30109758-5765.69027293    -81.08370203****************************  38840.18361516-4587.23333853**************
    1-6933.03627824 -595.92551648-5786.43353493  17726.4767892839286.70710655 2553.65718453  43353.1908900712641.62095857**************
    8-6108.69542642  724.29813133 4549.75439613  -5910.24877328**************-8864.39820415     21.40572513 1201.60027942  296.58507908
    1-6100.18611368  685.00612568 4548.28369990  -9190.6208034742422.59676277 1585.18335312  10540.52691602**************  178.48269125
    1-6122.85750387  746.03826389 4542.92587579  15100.86957676************** 7279.21485103  **************21584.91752404-4871.63171644
    8 4679.20767690-5001.84719458 3591.49664662  31964.8988343312684.71495260**************  -2148.48925257-4722.70749452-4629.96451220
    1 4752.92070578-4897.62954140 3651.78440332  ******************************************    -17.41446714 1303.23046974  774.14334954
    1 4634.58474833-5094.53818599 3501.61124688  49008.24558533**************98715.86003900  33866.6528721773899.1006784072415.74139392
    8-4093.59019262 6659.69272121 2257.65064027  ************** 9802.54582174**************   5462.65503718-1362.74730282 3728.44004392
    1-4210.69974236 6688.09496659 2234.84054714  ****************************25031.30206316  ************** 9722.5140742511697.01925291
    1-4068.91675207 6640.25293863 2406.56116413  **************21365.23039673**************  **************11359.02104336**************
    8 3095.57568784-2322.52351565 2592.70552466  ******************************************  -2383.90906999 -859.42391363-7170.98771588
    1 3209.26639879-2236.35486827 2650.58094401  ******************************************  11575.4560271314731.38592243**************
    1 3102.00670514-2300.81480199 2486.50509395  -7050.07570156****************************  26776.42326409 -957.19154737**************
    8 2801.94320803-5144.63970047 1729.30039744  ******************************************   -300.53942208 -609.38869726 7717.61597640
    1 2796.94729461-5152.84642091 1860.43257063   5487.84832857 9010.94088982**************  -7053.53380108 8804.33890301**************
    1 2777.32703549-5158.01832792 1900.70098807  27073.5283410614714.96046625**************  11627.62588632  676.91841774**************
    8-2812.71331089-1597.85391664-4686.64807557  33410.11742678**************17355.59883183   4161.46663895 1135.96754972 2760.10807073
    1-2887.54059813-1695.64106860-4750.57810600  82189.13283900**************70219.34127274  ************** 4422.35221111-8264.53987986
    1-2707.53714432-1519.28063581-4606.96965618  ******************************************  ******************************************
    8-2704.52857927-3495.67978072-6816.87559569  **************29633.95150557**************  -2033.71349918  200.32428089 -919.64791681
    1-2752.90987784-3471.87337537-6816.23953049  52561.52453666************** -687.47736578  -4622.1944297736018.5904426341450.45821757
    1-2751.46855771-3492.20520517-6835.91318318  50938.10886394-3774.1716621120655.46741507  36787.73220904****************************
    8 1649.52855118 5541.72490356 4571.75569071  -8762.20226064**************49351.08544703   -118.69373204  146.94377364  554.69912669
    1 1645.11492095 5590.14804260 4600.98363097   4798.65382622****************************   2546.77416335 1336.84054000**************
    1 1645.90837042 5634.35915768 4587.80648451   3963.54843442****************************   -654.89024397-4076.03936739 9755.04935331
    8-4584.53220795 2570.95880796 6235.06797371  **************12461.12130353 4645.97841092   3628.86269049 2654.72375407-1541.24214664
    1-4646.32003677 2696.10191024 6182.54156777  67897.89533085**************57721.64440446  ****************************14325.97271731
    1-4604.54860616 2457.03953204 6291.88016969  21972.61487846****************************  ****************************10208.24468347
    8 4322.80919738 4550.56941502-2364.77665169  85360.56265877**************65465.46175516   1781.93923041 5277.60036572 2534.51951667
    1 4407.09565459 4608.60377378-2348.71070729  ******************************************  **************  635.6111127725050.99911506
    1 4316.41012707 4626.04604149-2321.02480344   6998.19362293****************************  ******************************************
    8-2355.52128117-2576.23213412-1958.16452153  21842.68555264****************************   4267.71947176   -4.18857939-3748.18817376
    1-2348.42311420-2576.02771422-1964.21483154  -7034.01543587 -182.12947678 6019.07229345  **************************** 6544.57527580
    1-2341.71951660-2588.10988829-1984.00581453  **************12733.7801715527714.48355401  **************36621.3034122053085.93105668
    8 5844.09187417 4568.29347116  295.16764487  **************52485.97976062**************  11343.64135814  615.23935738 9403.10227419
    1 5819.48001925 4572.64405848  249.74152817  26717.49111027-4723.1812936249314.34106369  **************12671.09823461**************
    1 5984.50378860 4611.73470799  226.23876710  ****************************75786.18325377  ****************************37242.37740148
    8 4131.70126731 1154.27110323-2565.18339952  ******************************************    519.58008694-1298.55830273 1714.13317748
    1 4198.01009765 1248.44759855-2631.06230641  ****************************72335.81819869  10087.7492411435045.99985635**************
    1 4277.05958086 1196.48388495-2521.92776621  ******************************************  **************************** 5915.46966674
    8 3931.79189489-6698.15074862-2153.29096166  22978.01700106**************54812.04792631   1242.5375988816857.05005082 8815.21329861
    1 3947.93520986-6695.17638237-2093.85975447  **************-3238.25175932**************  ******************************************
    1 3936.73877833-6771.45670533-2162.35836117  -5400.6028248780028.32739384 9898.63300510  18854.14423050**************11954.58450015
    8-4274.96795560 1929.21432660-2716.33501936  **************11968.60347343**************   4079.36226966-3657.21347657    5.26042176
    1-4349.46113269 1885.92799515-2805.91471917  81754.9926813447506.1434511498312.29975318  **************-1613.62919053**************
    1-4301.02530347 1983.79045393-2692.07021069  28396.01120424****************************  **************59612.1557706316244.73725302
    8 5467.64211858 4570.81691894 6401.87284271  ****************************-3002.13628383    431.89832397 3688.19579728-4619.22823083
    1 5426.45326492 4504.34441425 6432.63924964  45036.3217855472681.36968366**************  **************************** 6212.17415211
    1 5448.15171567 4570.25719454 6367.91254228  21030.09350482  604.7010635636641.88150154  20066.35013844**************67395.23149458
    8 4560.25324792 -417.83347199-5169.66319946  **************17133.1452654011014.57198192    750.3170199211718.17054303 5748.75911140
    1 4545.16355429 -422.85618963-5170.73082240  15686.18280863 5224.26553013 1111.53733321  26251.46771245 7208.29023184 1366.53763652
    1 4565.16713532 -396.79453012-5158.25195404  -5223.98413207****************************  ******************************************
    8-1205.90658607-2617.84078800 2746.85606874  13088.78989076****************************  -2970.80916640-4013.10421361-1711.06367847
    1-1275.67535626-2744.72476006 2694.91437966  76683.27702250**************57090.31251661  15173.9076652267673.6237457628796.04036785
    1-1124.24884392-2745.06007449 2694.74005551  ****************************57295.53702718  28739.50392376-6665.12990662-2526.64577747
    8  260.09001100-1677.99547168-2200.14569441  ******************************************   3079.36220401 2558.11217291-7219.34058718
    1  133.55013373-1602.81857292-2187.17491444  ******************************************  **************17598.04893266-4758.19996529
    1  269.72059066-1625.97230934-2303.00452589  ******************************************  ******************************************
    8 1961.28656006 6580.46639261 3363.72571285  **************40763.48537095**************   9804.2278322910962.92125435 2103.58201658
    1 2012.96061907 6675.54985984 3339.10133059  ****************************26999.77468222  ****************************18031.60754769
    1 2031.57003717 6522.79006251 3547.28910168  **************63492.03084632**************  ******************************************
    8  452.61050639  725.60499364 5189.31485442  ******************************************  ******************************************
    1 -442.02579949  991.71996607 6316.72310333  ******************************************  ******************************************
    1  132.80177668   19.27075805 4898.04733284  ******************************************  ******************************************
    8 6221.18211522 2330.98769115 4662.55044773  35496.94763979****************************    461.16732483 1109.68564849-1813.18673362
    1 6230.33964926 2375.84601305 4648.04823930  -9927.27228652**************15724.94562393  -5199.42552915 1714.0611315529755.66958983
    1 6244.53353753 2394.36742466 4594.02341178  ****************************75035.24566182  -2245.29240014************** -789.83294775
    8  397.67143040 1022.88924317 2893.15896805   1593.72799026**************37890.67387775   2763.90735359-2875.10611054 2445.23066324
    1  436.32197050 1011.69388330 2841.11249439  **************12200.1268954656727.78666620  -4610.5541912823940.59707892**************
    1  360.65040798 1022.37203125 2979.58940726  40530.10501583  564.88654593**************  **************22251.3745782220197.93899298
    8-6128.11988448 1071.07713038 -382.91314354  29087.59620135**************92084.85659570   1628.85190075 -567.15244144 2664.38517994
    1-6115.08608470 1059.96467677 -347.32153221  **************11994.21898661**************  **************************** 1388.74392223
    1-6114.28969978 1055.26641944 -333.50335161  **************17173.89913563**************  25085.8834726129394.06158803**************
    8  430.77901460  190.49165965-6066.22595123    804.21381422**************43456.63353436   3392.60791015 5357.49172188 9834.60681878
    1  447.83222655  218.15586738-6013.34580025  ******************************************  ******************************************
    1  414.46470126  131.94110607-6079.19675833  17765.9945720263759.3771104514126.29571838   2883.14337357 8330.37102482 8336.99708904
    8-6317.27351637 4150.88139055-1224.80552620  ******************************************     93.05706760  -79.58579684  367.96958132
    1-6347.17264301 4098.64609781-1303.59644288  32749.3395521157215.1021371486301.27722206    316.16884300-2654.0639852511795.01049259
    1-6327.30959713 4097.94072499-1190.20076920  10934.3081228657677.82433624**************  -2181.27244392 4178.00556286**************
    8  612.67451247 6946.43170971 2054.00067163  **************68572.44711582**************  -9635.53412465 4958.15862286-3043.95576805
    1  511.92570733 6967.37758864 2099.14231712  ******************************************  **************-9782.08529103**************
    1  566.68789285 6988.12443099 1993.48444679  50300.70441582**************66191.29313698  43809.73446510****************************
    8-5699.26628998-4021.38105002-6759.21728469  93492.1291015169613.4667917392784.51309313  -4618.09454883-1205.93516373 1747.92488570
    1-5717.05417485-3974.44433279-6609.27155207  19554.73464982****************************  25005.73393451  528.43794666**************
    1-5596.25389143-4004.96421299-6824.87293509  ****************************72051.76921320  48235.7701960418786.40927585  258.70093923
    8-5153.49992510-2571.23956099-4334.48057520  29300.8961745150407.41395340**************   1422.85498184 -401.29606689    5.69212725
    1-5137.23072327-2596.92494191-4319.73942358  **************27605.07000833**************  **************33136.74119941**************
    1-5142.68776229-2499.89085547-4377.40840779  ****************************46937.11911774  -3522.76415168**************16109.14461225
    8 6930.01341774-1140.40645103 2780.79796208  ******************************************  ************** 2537.57220588 4122.41353941
    1 7148.11041475-1176.85646060 2702.07888148  **************40148.9224699286709.42534276  ******************************************
    1 6969.85988359-1141.17253935 2746.61888557  **************  833.9021270937109.14711662  ************** 4195.0362506829305.92471343
    8 4255.55922035-3308.86672525-6594.78842937  -2742.6201138829822.7947039155567.00230247  -2028.18293521 6127.44078413 4534.14921443
    1 4303.89787134-3403.08069898-6605.02015664  ****************************11216.27175358  -3287.04459671-1515.50344181**************
    1 4204.84105031-3187.73496548-6534.00265070  55723.81885282****************************  35918.68051185****************************
    8-5446.45649174-2878.73827178-1497.79506943  -8179.54207589**************82410.98675634   -786.44087790 1034.98731960-1073.22172083