 BEGIN_INFO
   #
   # This is a XCRYSDEN-Structure-File
   # aimed for Visualization of Fermi Surface
   #
   # Case: Tight-binding calculation
   #
   # Launch as: xcrysden --xsf HICOLM.XSF
   #
 END_INFO
 # estrutura final
CRYSTAL
PRIMVEC
      14.38058031       0.00000000       0.00000000
       0.00000000      14.38058031       0.00000000
       0.00000000       0.00000000      14.38058031
PRIMCOORD
  300    1
    8    4.07964253    1.33280284    2.28217861    -15.17036618   28.17113686  -10.07605047      1.52860946   -8.80086711   -4.89416773
    1    4.36003313    1.30285217    3.20927567      1.00727062   -8.15076236    7.07935374     -5.80797774   10.22037947  -11.55525474
    1    3.37600870    2.03689104    2.29963435     17.28762851  -19.90884991   -2.74149880      6.63936194    0.49109568    5.96732512
    8    5.27415911    6.89269468   -2.53550058     -5.04878091  -58.51435059   28.58984303     -6.88342335   -4.43623568   -2.70353368
    1    4.71537149    7.04211250   -3.30426201      4.56465891   25.35519896  -12.93839750      3.72403009   40.93215781   -7.48621881
    1    5.75835440   -6.69216249   -2.34105288      0.83557872   33.32369672  -15.99530652    -24.00208514   11.03641151  -27.12248910
    8    3.16304714   -4.09099036   -3.15982394      5.74078202   -3.42030730  -10.11813303      4.95863870   -5.96298392    2.13088945
    1    2.68409257   -4.91708759   -3.11903865     -3.66093214   -8.66883931    4.08851497     -3.95233421   13.31426182   17.15274608
    1    3.59657100   -4.17654975   -4.02767016      3.55370971    8.39037305    1.05475507     16.22473860   -1.81660748   13.81507595
    8    4.60676378    0.64336950    4.86205218     29.68160835  -11.69878976   35.63057561      1.02139934    0.31772406    9.85695315
    1    5.07630008   -0.23756709    4.96708899    -18.82428596   21.88186600   -5.15904214      0.36920709    2.50243476   -8.80567511
    1    5.12504796    1.21424342    5.49377007    -14.05233567  -10.50963918  -28.04578203     10.20523553    3.76088191   14.37285000
    8   -1.12739790    3.13390509   -5.42676628     -1.18626235   23.67205881   26.54971389      4.48666087    3.01869739   -3.21297691
    1   -0.48378528    3.61869632   -4.87891997    -14.28663995   -5.79599959   -3.20922346    -15.96454202   10.97952807   18.80305928
    1   -0.55220161    2.69111912   -6.02767799     15.78004920  -23.90346730  -20.18008290    -53.98732802  -25.22554655    5.76618448
    8    0.94086191    4.68919305   -2.90964448    -27.40227970   -1.64509036   24.79451966      5.24588339    3.69959970   -1.41075542
    1    1.69192373    4.33075342   -3.39666213     10.61495495   13.86911711  -16.87757336    -10.20367004   -1.87392983   15.54645249
    1    0.52881020    5.38399338   -3.44321833     17.48888981   -4.05585235  -11.40154909      0.33401626  -12.37741207  -11.48620750
    8    5.84267140    1.79521493    0.24333660    -19.03246431  -20.40053469   18.87444470      1.65140095    2.61826522    7.10078889
    1    5.21856343    1.87305296   -0.49419940     -1.80457249   13.41825012   -6.18333292    -19.40852284   17.37677958   -0.96695515
    1    5.20817681    1.51498423    0.95847938     14.43177333    7.62713185   -5.03996891     -5.25375424    1.85073861    1.93076656
    8    1.06549087    4.89439040   -0.26740404     23.22168949   27.56483312    6.82573497     -4.48642804    4.84280079   -5.71250224
    1    1.26354623    5.09104395   -1.22321555     -5.96166893  -13.57948162   18.22351256    -22.28692488   -4.96144263  -16.38712960
    1    1.75570045    5.41984191    0.21877340    -18.68078251  -15.78162733  -21.63421173    -17.49098345   21.44164456    4.71205875
    8    0.12224007   -5.19781471   -4.48201968     -8.36582734  -37.11127135   27.50842572      1.97706645   -3.66023206   -2.44723904
    1    0.34662823   -5.93485730   -3.85874479     15.13088935   20.15335056  -10.40057644     -1.26230992   12.37443539    2.12600156
    1   -0.83793113   -5.23527070   -4.35903747     -3.32981954   18.65037950   -7.99597278     21.13275725   16.40018247  -23.25466434
    8   -1.83281778    0.79922789   -0.99805002     39.45283022    0.63454323  -23.65450553      1.28210419   -1.01435910    5.94621766
    1   -2.00722082    1.09215701   -1.94880410    -15.97045179   -5.26364751   39.03332697     18.18257864  -24.97419342   -8.23420756
    1   -2.62099227    0.97839236   -0.48886214    -22.91606309    4.82081290  -16.10016478     -0.57109051    2.72964634    3.04605142
    8   -1.24167855    1.37542875    1.65078387     -0.46824202   39.44054768   43.54056515     -2.80336118    3.72149961   -0.19051763
    1   -1.55429977    2.29270383    1.51621961      4.41299826   -9.56016187    3.24488646     -6.73623484   23.13493167    3.73205790
    1   -1.22630192    1.04847916    0.79009801     -3.40861083  -20.45390356  -48.51625179    -10.92880784  -16.36100172  -13.96829067
    8    2.86215523   -7.18226129   -0.40970372    -37.18044409  -31.95285169   23.81105201      9.97168954    0.18902131    0.47125961
    1    3.37869480   -6.50570726   -0.76495385     30.40980672   33.71045040  -19.64494001     10.90599494  -16.76600992    0.89309353
    1    3.41030922    6.90442454    0.33499770      4.08438865   -5.44329170   -3.62977692    -10.81449261   -4.95784703    0.27928850
    8    0.16463765   -5.16554064    6.32186755     10.04783605   -7.29865821    5.50059619     -5.91336323  -12.04571481   -4.26618296
    1    0.76287909   -5.85598156    5.97285421      1.05815821    0.57622028    7.01887078     -4.43934424    3.30012302  -16.69541407
    1   -0.44959979   -5.05547608    5.58579822     -9.77943895    2.36587104   -7.84901287      5.38965061    3.27750530   14.71379361
    8    2.05102362   -6.98846674    5.64796033    -24.35080345  -13.38024527   -6.94083358     -6.55171570    0.74295923   -0.49885324
    1    2.04583760    6.43714331    5.91474871      8.85768270   17.18227737   -0.19242674    -13.37687614    7.68973867    4.69133708
    1    2.98137028   -6.75319114    5.62483137     15.96287388    0.33661717    9.28182523      5.10055840   21.39551839   -7.50795689
    8    6.84718799    3.74308703    2.02125864    -11.06356086   40.03932008    6.11974368      1.58914455   -0.52478198    1.47224442
    1    6.47026078    3.10301242    1.42422668     -6.28861113  -15.55242792  -13.61489929     22.75924132   -8.53020604   -0.46152809
    1    6.48533922    4.59866809    1.67119658     13.38302730  -26.17406481   11.25914257    -22.03271188  -19.34988063   -5.64224542
    8   -1.29278278    4.26337770    0.79860145     -0.39938825   -4.71560091   -1.93088694      2.72371813   -3.15562044   -1.91918622
    1   -1.98474177    4.48624467    0.17099488     -6.43842850   -0.73436230  -13.30198421      0.17438203   22.18023281   17.27779483
    1   -0.48907401    4.47326653    0.28001086      4.24252117    1.34187131    5.96696203     -7.94900057   17.14431354    1.86493645
    8   -0.98867717   -1.40295564    6.58827786      7.48353324   -0.39389946  -45.08584429     -3.78518117    2.86810873    3.10175123
    1   -0.60793895   -1.84992458    5.78750426      5.71591040  -15.01681682   29.31859210     -2.07938607   -2.91254911   12.68346870
    1   -1.42304302   -0.70800236    6.08288547     -9.66383768   17.19434304   18.10263983    -19.02592092    4.86395648   15.74449317
    8   -5.84860020   -6.76573005    5.80802447    -16.11233365  -39.87277384  -36.51564734     -0.10855589   -2.31116927    2.36493442
    1   -6.42514071   -7.06832647    5.05612309     -0.28227873   31.81365285   17.20575447      4.00654387   26.24869676  -22.52918855
    1   -5.20177086    6.89955958    5.69502015     21.75916879    7.76144733   19.63988104      4.28575932   -0.28477956   -8.80299104
    8   -2.91659087   -1.38625043    1.48857993      1.65676045  -11.48886540   -3.33735296      0.23690344   -4.69874645   -0.89133434
    1   -3.52586359   -1.27008295    0.75958095    -20.87265553   11.61939393   -8.85075432     16.57334546  -18.35570495   -8.61818314
    1   -2.20749771   -1.82412345    0.99753889     10.66857160    0.47916779    8.25138205      1.71698825  -11.45830728  -21.81325116
    8    1.06258098   -1.28001297   -5.78894296     15.92162213   37.12188706   30.61638092     -2.30603912    3.34134110   -6.17356051
    1    0.34689322   -1.12742507   -6.40891458    -13.70707853  -31.65388152  -18.30908537     12.26881107   -9.89658141  -22.77467017
    1    1.33342570   -2.21201508   -5.86925461    -11.17107335   -8.77251828  -18.04809304    -15.72195611   -6.56774320  -41.67645382
    8   -1.84903244    0.45761888    4.56166146     29.64806246   -9.08678678  -17.81152331      1.09535804   -4.59443416   -0.35592227
    1   -1.03604932    0.25541724    4.01767105    -28.81037071    3.91761079   17.85210073    -21.86528801    8.50609302   21.21195552
    1   -2.05966770    1.35234303    4.26351095     -1.14555500    0.74057617    4.59125066     15.42735585   -7.57322212  -23.72856364
    8   -5.54076258    6.21806039    1.44746862      9.69921542   21.65582523  -39.53560190     -9.19381895    0.88753687    3.35307856
    1   -4.69266669    6.70174334    1.31001314    -17.84587238  -13.47158793    9.33067215     17.77035395    2.55853861   -3.07426806
    1   -5.85251720    6.12007295    0.51559289      6.73756952   -5.00693984   24.96720209    -20.53364716    9.15462168   16.86905031
    8    2.30036946    3.60456865    2.32638922     -9.98709568    0.89294800   -8.52639397      0.93103361   -0.81966226   -2.65519206
    1    1.76262152    3.68993113    3.14321323      4.30321321   -3.11664999   -4.98239263      7.27123028   15.77099201   -6.31773781
    1    1.62407597    3.46552614    1.63118794     13.62255842    1.15299423    8.84430974     -0.98481719   10.71091231    6.36213508
    8   -3.08930517    4.91480679    2.60628677      6.36355109  -20.68531457  -14.46127253      2.10423026   -1.74405076   -2.92090731
    1   -2.48170386    4.66118863    1.87207077      5.26082502   12.22418310   17.67661937    -45.70443101  -19.70017706  -21.38648285
    1   -3.84374166    4.29973574    2.37458186     -0.72198762   14.47179381   14.80506893     18.15517915  -22.39682513   -2.75221709
    8   -4.47464515   -3.41967277    2.86274541      1.40409918    6.37745789  -12.05221365      2.09376857   -2.83924159   -2.47293747
    1   -4.21760683   -3.40966921    3.76993269     -3.28575783  -17.39918643   30.82372204     11.31935436    0.41873713  -20.95893244
    1   -3.81248224   -2.83072559    2.51450774      7.49324504    9.98424580  -21.32561032    -27.02168486    0.34606230   -6.47813611
    8   -2.97445040    4.37615953   -1.69622027    -31.99367042   17.57888525   17.68963645     -3.59489688   -1.51988524   -1.97597194
    1   -3.85632656    4.78758500   -1.32864329     42.55010383  -44.20718696  -38.97092732      6.97446405   14.58298637  -37.92780105
    1   -3.21572771    3.59089861   -2.25533320     -9.62674358   24.24289870   21.03532317      0.38424075    8.37337826    3.28977564
    8    1.91257221   -5.00853530    3.56299259     10.73144285  -27.78466864  -30.88441085      3.67396974    1.69195873    0.64272121
    1    1.99040389   -5.74548979    4.19789208     -4.72287594   13.45937182    4.53622214     -1.10282790    4.32702773   10.59745190
    1    1.69950454   -4.24499257    4.06988814     -7.82220204   14.67042507   23.61389879    -44.00284536    1.89633674   12.07386085
    8   -1.46037265   -5.34904953    4.15664959    -13.57857639  -25.11468913  -14.87718663     -3.31269897   -0.82717455    4.80204001
    1   -1.30536133   -6.21090004    3.71246606     10.82681350   15.44129557    8.58409184    -15.30780259   -2.92497543   13.45049275
    1   -2.43260759   -5.37614732    4.21368592      3.60867026   15.52163675    8.72130973     -5.02062594    5.72801767   28.19608393
    8   -2.01692755   -6.83335788    1.60287618    -41.16845584   13.20190961  -14.80614135      5.40407964    3.20412615   -2.58774272
    1   -1.18465579   -6.33145169    1.61966137     14.23366906  -21.80412108    5.79058005      5.55625307   17.60991849   14.16608222
    1   -1.90423412    6.70157505    2.06670965     20.68018139    9.31261252    3.06487406      9.50799856   18.50892621   17.83500781
    8   -7.01711621   -6.93540498    3.34649526     -4.63163279  -14.45162650   -1.13183104      0.39346947    1.02892295   -1.89995751
    1   -6.97585748   -6.00321886    3.15520137      3.25693235   13.61967219   -6.10082761     41.40536333   13.22123244    6.37556668
    1   -6.48825302    7.04857645    2.61400125     -1.40286586   -1.66818236    6.06681306      6.77825029   20.24589003    6.60838185
    8   -7.06610915   -3.17751564    2.71802290     52.76591150   59.66413996  -51.89308344      1.23101727   -0.63431422    3.41177069
    1   -6.08831840   -3.37140123    2.60998101    -23.93817048  -23.05608393   26.93998902    -30.22884459   24.85208415    7.71300613
    1   -6.98841075   -2.30461355    2.21576515    -34.76438670  -28.98339523   27.92542467     30.96717783    2.58302641   21.60118052
    8    6.71975274   -5.21622941   -7.12749525     20.89266081    8.63916357   64.88421957      3.64439510    0.49726277   -0.09179949
    1   -6.96120221   -5.66296418    6.75950963      8.59043905   -5.55087071   -7.02911514    -24.92335750    0.94466218   -5.19865600
    1    7.13333512   -5.14432930   -6.18972035    -28.81145536   -1.57914548  -53.56493875     13.68003073    7.64747989    3.93774980
    8    6.88025332    3.50124549   -3.58758275     59.78652213  -55.89782702   22.00661864     13.70307996   -2.45545080   -3.69696052
    1    6.66569874    3.86518632   -2.68783416    -20.94371132   14.25497990  -29.75629697     12.55152895    5.25713843  -21.65141710
    1    6.32840568    3.86508414   -4.24420805    -38.04545784   40.59879744   -2.09182939      1.33538569    9.40459456  -18.29482439
    8    1.06255611   -3.08610215   -1.68831200    -54.80267951   23.52178003  -24.61695889     -1.43339560   10.79321205    4.69057635
    1    1.45464311   -3.54693004   -2.40974801     12.90886982  -15.23358693  -23.32013867    -20.45367611   21.88297672  -19.13790935
    1    1.69453960   -3.23189701   -1.01488476     32.98991991   -2.84757195   40.33267670     19.41649188   -9.57784145  -11.16728228
    8   -6.87013538   -5.23347561    0.67153766    -50.55338860   -8.17268493   -3.64181421     -3.03512350   -2.06351241    3.54323147
    1   -5.96203441   -5.49821145    0.70225049     37.61737648   13.26661507    0.22116301     11.23449052    1.72809180    0.14740576
    1   -6.90579684   -4.25036896    0.73820796     22.97373217  -10.64168400   -2.11716646     18.54536384   -5.07072739   32.63565680
    8    3.36060570    4.05669941   -3.95334749      1.98972266    7.04065174   -1.21259062     -3.28344994    4.64604726    0.95490825
    1    3.07983938    3.16055633   -4.29038477     14.47046288    9.84807228   -5.15815426      8.53976090    5.38930378   18.53041160
    1    3.80181743    4.48909615   -4.71280099     -8.92545232  -13.10262802   10.91527541      3.94579769   33.93042593  -14.36275718
    8   -2.52343850   -5.25505812   -3.79180011     -9.74075869   33.44212952  -11.13319958      2.74046453   -2.41577246    3.02138119
    1   -2.68598137   -4.73106401   -2.96992273      8.16229739  -18.55043406   -5.94479803     -1.42213477  -19.33798055   17.00875468
    1   -2.27332517   -6.12925045   -3.51150714      3.83002749  -21.82566516   23.14838914     -4.61217855  -27.11327405   26.01011387
    8   -3.59042864    6.09623528    5.08342438     19.80159774   10.06818860    5.55921520     -5.48569642    2.69035215   -5.63080670
    1   -3.42724916    5.62919545    4.24696157     -4.56364723    3.11533296   -5.82292120     27.17422901    5.74636893   18.63043155
    1   -2.67127215    6.28011336    5.40426307    -24.14789892  -10.20105199   -1.63839856    -10.46852699   -4.77829784  -12.64096184
    8   -1.73883456    6.40428832   -3.25256658     12.66367408   14.95045950   17.23403571     -2.33542473   -1.93749794   -5.90514335
    1   -2.23888828    5.74995585   -2.75882011     -5.25775684  -11.64044183    8.36304606     16.64396196  -17.79661571   10.76515719
    1   -1.78632549    6.06541584   -4.17028447     -7.87869285    3.79903239   -4.97260620      5.33537923   12.73052293    5.40629721
    8   -2.01153619    3.32301614    5.15513814    -17.31688368  -10.68270880    6.47312586     -6.42572427   -2.84027384    4.15124909
    1   -2.73836118    3.29222889    5.83264524     19.46043377    2.67114917   -8.39405157    -29.21136613    9.28284122   -3.01808113
    1   -2.43147468    3.80164670    4.43454395     -2.65974013    3.69768847   -5.60323057    -36.08371224  -21.53861233   -6.15852441
    8    7.04955728    1.08977957   -5.18289386     24.09615523  -40.62912223  -11.68480885     -3.45240946    4.42721612    1.32940150
    1    7.08853361    1.88427082   -4.70671861      1.72888538   40.89050489   24.98560183    -26.94265045  -28.50820792   -6.43097547
    1    6.14018466    1.02978411   -5.42608410    -22.50409855   -4.29733641   -9.79475113     -1.55919701  -10.15075156   -6.48086686
    8   -5.80891584    1.83518121    6.02369671    -19.90466213   11.10434648   -2.29489450      3.72831621    3.85921413   -0.11665234
    1   -5.37931541    0.97660157    5.85841021     12.89137202    2.33997725    5.89315332    -24.99245383  -20.47724859   13.26986929
    1   -5.14431097    2.40503013    6.43075238     10.12062042  -11.34498686    0.27947454    -11.41562458   20.24926992   -0.01415835
    8    5.02356046   -4.15198880    3.60776822     26.22691635  -23.68406723   18.87500155     -4.08612986   -0.89469440    3.10834574
    1    4.39081266   -3.71957741    3.10209352    -43.62054438   20.55049764  -20.74392753    -46.85029762    2.09972322   20.17335886
    1    5.83231236   -3.82878567    3.17288997     16.57652018   -0.16546038    6.09093138      6.24327876  -14.19710658  -25.16967450
    8   -5.46979447   -7.16293236   -3.43224887    -38.10491383  -26.09061516   -0.35636790     -2.95150061    3.30424648    1.54771245
    1   -4.64789608   -6.71987112   -3.55990770     10.55446557   26.23045271  -10.41584212     -5.54072672   -0.30429633  -16.03894541
    1   -6.17186714   -6.61670430   -3.87773113     29.33863248    1.77148779   12.06189513     -6.18813985    9.86110978    4.66201155
    8    2.82751597   -3.14548337    0.20351743     11.67835412  -16.80903009    5.15157241      1.45792231    1.27472058    3.54344411
    1    3.34701821   -3.96196934    0.29201075     -3.09891196   -0.81229879    1.82867072    -25.37188343   -4.58273106    3.88100894
    1    3.54920795   -2.50725525    0.06430583     -1.37572917   10.20855136    6.13234300    -15.36128185   21.47532752    2.23102365
    8    4.81299784   -5.28428015    0.55312083      8.85166673   -5.81054106   19.99210802      2.69918412    3.59164389   -1.62324007
    1    5.66696407   -5.56857548    0.20129996     -3.49704684    1.64703813  -16.45684344     -6.67150267  -24.58390050    2.01627139
    1    5.07441540   -5.27187306    1.48199438    -17.85694035    6.36566176    2.39834251    -12.62833249  -13.56537452  -17.73301275
    8   -4.67379868   -1.78278723   -3.11793526     -4.93847873  -13.43071775   12.37066302     -4.29505812   -4.02863120    6.62547373
    1   -5.58966341   -1.75297756   -3.45703395     -5.03176397    0.28381150    5.29026776      6.77665817   -6.45687767   -5.93864466
    1   -4.18976492   -1.43857262   -3.85399749     12.45258967   11.62730963  -14.01542601    -27.04923821   -2.92578669  -21.35460138
    8   -3.66780133   -2.00736045   -6.76848675     36.59523790   25.19762336    3.35877626     -6.24921028    0.21202079   -6.07901736
    1   -2.68451482   -2.01324947   -6.73115344    -13.23357947   15.40071328   -7.66070356     11.93797858  -16.17161171  -13.35498359
    1   -3.81923563   -2.89866192   -6.58676831    -20.68760638  -43.51818171    7.63125165     10.50091287    0.15359234  -22.71963795
    8   -0.29720426    6.45308280    3.50405719     -4.15181255   21.26310581   -3.51133789     -4.63066618    2.48540686    1.65868038
    1    0.11852647    5.62059766    3.48482003     10.36951617  -37.53692478    8.99292588      1.23506540   -3.19925095   -5.04412849
    1    0.13680872    6.86647698    2.74916194     -0.97139209   15.08793387   -3.76377897     -2.74339667  -18.56693327  -18.27220755
    8   -3.52320337    3.63959947   -6.85245593     15.30072955  -15.92262698  -12.63417053     -0.06487799   -0.07377015    1.30720532
    1   -2.69478868    3.62397460   -6.31915054    -13.54006519   -2.57132383   -2.53210127    -14.13190621   -7.08247877  -13.36817973
    1   -4.22073640    3.72583028   -6.18651363      0.98413951    9.84073147    7.32943660     -0.20907194  -11.11796018  -15.46760759
    8    3.85033790    2.77448398   -1.33267141    -12.26823336    2.07954362   -5.09981306      0.88516484    0.31544198   -5.99960025
    1    2.87589220    2.71613545   -1.12225846     22.00451967   -3.90055822   -1.06541078     10.82437296  -28.86949347  -10.14971252
    1    3.86319081    3.26140373   -2.17606116     -4.64946034   -1.65045597    1.48851155     -8.88823456   -6.85097385   -8.27679120
    8   -2.80938822   -3.48469563   -1.51448213    -34.00553496  -94.88775066    2.04394653      0.37495284   -2.20853557    2.69199178
    1   -2.07064695   -2.92211412   -1.35152632      8.06890031   46.40948197   -0.94538276     12.64056105   27.59996577   -6.95312513
    1   -3.50063646   -3.03444705   -1.99969219      9.60587381   37.46942756   -4.73720977    -10.02959935    0.72886138   -0.70046175
    8    6.19501499    4.61777542   -1.31148540      1.75170487   -9.75797370    9.71378204      0.70890540    0.35381601    0.43935714
    1    5.48489737    4.28131800   -0.75549687     -1.72396038   -5.75956668    3.23959866     -5.35302171    7.13644142   16.55630225
    1    5.78057371    5.40641984   -1.68061412     -3.29578447   18.54789201  -10.54700816     -1.89358405  -18.31734373  -15.20966112
    8    4.01672370   -0.15956892   -2.27891197    -40.47585816   39.02183445   17.08762610     -0.22330079   -1.21431095   -2.86126556
    1    3.94120174    0.57557415   -1.61195862      7.28098761  -23.49262616  -24.20869340     -6.22462612   12.37679646  -10.61964340
    1    3.06687586   -0.19655295   -2.60889779     28.12229486   -5.85332696    3.09367882    -18.90816657    6.18704305   19.43504206
    8    3.99177049   -6.69001254   -4.95120940    -12.63622177   11.45131938   20.74028930     -4.57621276   -1.50152008   -0.68132620
    1    3.02107118   -6.86511605   -5.10859183     27.88331797   -9.10144133  -11.30269748     -4.21767702   -1.45249592   12.68451805
    1    4.47604643   -7.03487647   -5.70881311    -13.95508408   -4.43334942   -4.13860012     -8.44418954  -15.04888855   13.50686868
    8   -2.82699776    1.78615842   -3.39886051    -40.44833748  -19.51460114    2.00035577     -1.90349450   -3.09718562   -3.62311816
    1   -2.24047214    2.17189233   -4.03402125     13.40097076    9.20787663  -21.38463443     23.24118684   26.24261655  -10.89350799
    1   -3.56802953    1.41348527   -3.96848075     29.57736372   10.72334255   16.55078018    -13.82496344   -5.07793417   14.62941075
    8    4.93059497    4.66838255    6.37620337     19.62562482  -25.55293369  -30.12903038      1.15436515   -1.13338130    1.08144060
    1    4.86791601    5.26947030    5.61372671     -5.37465340   15.48089066    4.56157199      5.21485219   17.03390230    4.56960393
    1    5.40010694    3.92386075    5.90419617     -8.02102372    4.64287674   23.43929522     23.49696792   -1.60728628   29.30219031
    8    4.64359033   -0.54202785   -6.37464090    -14.42574484  -12.72670450  -38.51206692      3.80527115    6.55260853    1.04615347
    1    4.87447464   -1.40801230   -6.05034749      5.14571093   -7.64162095   20.94534453    -28.24360984    6.60177621  -13.44906943
    1    4.36392461   -0.81345419    7.09511520      7.65387852   22.63293440   22.87970699     17.04133243  -16.30621810    0.01448906
    8   -0.20417309   -2.68402086    4.30317479     14.19850519   26.01300564   58.85935240      2.57676125    1.53305341    2.64508478
    1    0.05035650   -2.34261790    3.44384942     -6.66233750  -12.81739572  -27.98226088    -33.96899034  -16.61345692   15.17257386
    1   -0.80337143   -3.41389042    4.19427017     -8.59903468  -16.04643995  -28.57142369     13.46047867  -19.76067325    0.61505747
    8   -1.00690731   -1.91798424   -0.47597268     22.57507402   33.16953006    3.59265998      4.16758484   -4.58280461   -0.02009547
    1   -0.86286572   -0.92493937   -0.49374341     -6.39856878  -37.56231233  -12.08046054     13.67152957   14.44226543   36.66416596
    1   -0.31549372   -2.29298070   -1.08802107     -5.53777846   10.84619346   13.12801969     -7.13390283    3.07559854   22.87011253
    8    0.65241954   -6.65727440   -2.06665475     18.51579279  -74.00925515   53.94880734     -4.29836635    0.23524270    2.35109475
    1    0.00508179    7.04745247   -1.81421834    -34.43976211   28.11392571  -31.89603324    -43.44478629  -17.15058932   -3.75704526
    1    1.32874160   -7.11541206   -1.50141296     18.26336351   49.52007811  -27.74074019     22.98326603   11.14359215   -8.04133253
    8    1.96305849    1.11243902    5.40514152     -0.01036656   12.79397445   18.51283715      4.45719392    3.14437248    1.28844681
    1    2.92473508    1.01117151    5.34116661      8.52458367   -2.24257721   -0.72235495     -5.48014985  -18.95641500   -7.69035306
    1    1.67846620    0.64519025    4.62197529    -12.13204867   -8.93241357  -21.06487672     -9.98049684   25.42417749  -21.31504497
    8    6.31440327    2.81426246    5.03768836      6.49947212   -6.68466727   38.02926892     -0.03172760   -0.89317685    3.62131560
    1    7.12881196    2.50621738    5.55401198    -17.41678103    8.66053949  -29.63359528     -7.26340000   -8.60203364   -7.59303822
    1    6.65465461    3.21734214    4.24107184     13.74452915   -0.47158120  -10.91724750     -1.54836583   15.93865153   -9.56818277
    8    0.87195994    0.44601807    2.96704624     12.26629710  -19.96635847    2.70330594      7.17595808   -0.95703530    5.34623221
    1    1.07430158   -0.41681543    2.49531081    -14.79720475   28.90133753    8.97152969    -22.33798843  -15.63655306   21.30774640
    1    0.22880221    0.90971132    2.39330525      0.41538191  -12.22770584   -4.05590500     -5.56447447    0.11252696   13.06742703
    8   -6.53117162    1.06552338   -1.40305129    -24.08017590  -14.78737825   23.71729938      7.09889460   -7.16039265   -5.67022715
    1    7.03436632    1.13873345   -0.85887970     15.25365853   -9.35295891    5.00248948    -22.97230617   11.66776103   11.29834239
    1   -6.66552764    1.81948183   -1.92913050     11.58267046   28.35324873  -31.32405364    -26.89951547   -3.70914765    5.83941192
    8    0.86502799    1.33850567   -6.43503542     -4.81690016 -106.66170892  -11.19543488      1.08965446    3.97069936   -2.72078136
    1    1.12113158    1.14046638    7.00951140     -0.51431190   27.71825384    9.57749027      6.24975118    6.83552118    2.33641447
    1    0.82703573    0.34070948   -6.11812183      1.91531077   83.28406118   -2.93918155     -6.23029625  -21.07823315  -19.27839087
    8   -5.52439045    5.15177588   -1.43656857     38.57695826   -7.96494235   23.68128628      6.99335186    4.51720314    2.97616886
    1   -5.56628729    5.94891135   -1.99828129    -29.59709354   -7.97714985   -5.15950320    -11.14139981   13.59658654    5.21495505
    1   -6.40928633    4.74850047   -1.34311762     -8.98408573   24.84959099  -16.93141466     -6.11056518   19.08684405   15.97006921
    8    0.64646864   -6.17883565    1.32235204     10.12011392   -2.53034853   -1.77886017     -5.40952857    0.80973958   -0.24577335
    1    1.22889693   -6.28667528    0.56689748     -4.52451621   -7.78902396  -11.86291172     21.51949974   20.60779946   21.81692101
    1    1.19812742   -5.60392933    1.86091798     -3.68264988    8.14855304   20.21363690      9.58310638  -18.67375125   -4.91209051
    8   -3.91274378   -4.72485068    5.38998425     -6.59175585  -11.55703124   -0.74748622     -0.61046821   -5.77984687    7.66828911
    1   -3.52414375   -4.59449072    6.27303099     -1.10629979  -11.74125592   -2.29168655     20.37897563   30.17572702    2.47260223
    1   -4.39534834   -5.58936199    5.45839812      7.60304605   23.24685789    6.00681287      0.47033032   23.11217490  -17.90528919
    8    7.13679652   -1.52394695   -3.76524943    -17.47319431   24.47210454   -1.55290260     -0.45948160   -2.13848135   -4.59488182
    1    6.22852357   -1.52031209   -3.46778510     -8.60826080  -27.07937799   10.78290575     -3.09588933   -9.51313403  -14.44166708
    1    7.14931121   -0.58911694   -4.00752528     25.05354605    3.09141667  -13.20179644      2.37129479    2.78702952  -16.81183854
    8   -4.53092773    0.65627001    2.62003559     16.58704442  -35.99218177   -5.59927843      2.56374158    6.47635404    5.00905956
    1   -4.44313043    0.47703867    3.56934100      0.94636123   -2.15934454   -2.75800522     15.11535191    1.41223431  -25.61993883
    1   -3.90478879   -0.01496398    2.20920508    -17.07542779   23.69689649   15.63004765      6.27505131   -9.36619641   13.59691114
    8    4.32953923   -3.55324315   -5.78432488     -9.42171425    6.73792299    1.14284651      2.55321324    3.25358199    3.94684859
    1    3.40880256   -3.66493997   -6.06513016    -12.14804499    6.70022458    8.94860496    -12.45297033   13.83812315   23.55153256
    1    4.76065737   -4.06086495   -6.45307095     22.30661844  -11.00431123   -7.99559054     -1.09437186   15.57898065   -3.27823691
    8   -6.89260139   -2.68263225   -0.31541999      4.35575468   -2.94524547   10.60118238     -5.89314922   -2.30425914    8.55590878