 BEGIN_INFO
   #
   # This is a XCRYSDEN-Structure-File
   # aimed for Visualization of Fermi Surface
   #
   # Case: Tight-binding calculation
   #
   # Launch as: xcrysden --xsf HICOLM.XSF
   #
 END_INFO
 # estrutura final
CRYSTAL
PRIMVEC
      14.59280567       0.00000000       0.00000000
       0.00000000      14.59280567       0.00000000
       0.00000000       0.00000000      14.59280567
PRIMCOORD
  300    1
    8   -3.72686551   -4.08376925   -1.72244800     19.56767560   15.78509134   -3.47489269     -1.64762274   -0.77825430    1.34349416
    1   -3.04440017   -3.40644624   -1.78324891    -12.72997988   22.64907219    7.69744567     28.36475048   -2.85755151   25.91271117
    1   -3.19125230   -4.77715545   -2.07211337     -4.75865525  -41.46105377  -10.74412969    -17.89854715    6.21856630   -6.88069348
    8    3.35091584    1.32021627    3.32619494     31.30723859   29.14116529  -30.56004622     -0.35318181    4.15943720   -4.27207275
    1    3.03432770    1.70546273    4.14619039    -15.28900939   -4.18517603   23.95845615     18.79784369    4.95736014  -18.93692873
    1    4.01413426    2.01968136    3.05305899    -18.87555510  -28.09480897    0.45724219    -22.46052497    0.54595522   -5.38319408
    8    5.91135267    4.07852425    6.04416055    -14.65235418  -15.60464390   10.86691825     -0.74025944   -4.45310068   -0.24353192
    1    6.40126368    4.87346216    5.83508850      9.67947872   19.05941442   -7.87043766    -18.61728607   11.29936384   -2.37094464
    1    4.98710790    4.37261531    5.97822988      8.47491058   -5.03695191   -1.63028992      9.09900902    6.69395515  -12.54838799
    8    0.93663024    5.99895273   -4.70242797     45.81579713  -17.82564172   23.12164780      3.85188707    6.97526563    4.80035412
    1    0.56432361    5.56300827   -5.43879049    -27.58243070   -6.51504029  -34.62317555     13.74761073  -12.85165888   -0.04778320
    1    1.76961352    5.43644099   -4.59715217    -23.28414975   27.89094993    8.00419873      5.05974698  -13.05301519  -32.65822355
    8   -2.37872240   -6.24965690   -3.14189689    -23.33065064   -9.06368109   38.41437097      5.46449592   -1.48059699   -2.38746412
    1   -2.18704217   -5.62007036   -3.84846069     16.10380386   -5.25525386  -21.14957360     -7.89311054   -7.45321678  -20.67173461
    1   -1.72552239   -6.95841343   -3.23511094      6.21327409   10.42491450   -9.70909417      6.01650031   -3.36682690  -22.17685907
    8    6.92441598   -2.31457984   -1.16381627    -12.80940245   19.99835627   44.32846323      1.38957816   -3.68032832   -6.10867810
    1    6.39286045   -1.64023881   -1.55963838    -16.54396435   18.01854738   -6.91401267     37.68524874    6.15740614   17.81167379
    1    7.20567253   -2.79298497   -1.90620967     23.75820251  -30.16663269  -32.39710764      9.12392562   -1.38792711   35.20756874
    8    1.56086726    0.94579053   -6.47973010     29.97308523  -29.79359131   20.00781761      4.90904181   -5.55589869    2.60808509
    1    1.47955862    0.06499531   -6.02331156     -9.57905277   20.30257916  -13.92053204     -6.76189870   10.75724801  -12.54813132
    1    2.53299237    1.07504196   -6.31238309    -16.34564910   14.25439152   -6.85550997      6.75840061    8.19593891   15.66831760
    8    0.91247949    4.55125068    4.78084481    -23.98665060   17.19329298   57.36611221      2.41167763    7.83668382   -1.89966015
    1    0.16471842    4.08619141    4.37199781      2.89987922   -4.67655840  -16.15364493      2.39664799   -7.51272565   26.64489988
    1    1.66729532    4.44423143    4.24887170     19.60812350  -11.07748698  -33.12360027      4.38830196    3.53920578  -18.87197193
    8    5.59102702    2.41544409   -1.73484748     10.36345723   12.70120813   24.46769338      2.40602690   -1.78803675    2.37615391
    1    6.00896784    3.15943875   -2.22780067     -7.95324192   -7.21203098  -14.92479667     -1.80255165   -5.01741621  -12.86622163
    1    6.12288466    2.45967427   -0.90827342    -12.84585107  -18.91828229   -8.06090728    -14.35396364   15.33839349   -5.34448397
    8    7.12355418   -5.70178271    6.21481902    -14.68299001  -16.58483078   -6.26650909     -1.26052486    2.13484206    0.46698093
    1    6.19962226   -5.53387967    6.48587557    -12.07722014   -6.52885525   -8.26554413      2.16986531  -14.42555516   -4.45104194
    1   -7.07061178   -5.09195774    6.80739482     36.00628144   20.14037222   10.66396424      6.53237233    1.32328945   19.75952523
    8    4.24928390   -4.92646512   -0.96021567     16.46737186   10.32832382   30.14388313      0.46380328    5.50683097   -5.30304105
    1    3.94286465   -5.71972045   -0.45037916     13.21909747   21.75738984   -6.21922291     13.98286876  -12.76789381   -2.12505519
    1    4.75154686   -4.33611426   -0.30009954    -30.12206970  -34.96180100  -21.58078279      7.50407621  -44.73352359   -4.79411648
    8   -3.10856169    1.76569798    0.37900239     -4.65141582  -91.90123406   16.13388697      0.76960700   -0.90032685    1.30864521
    1   -3.73217986    1.47257196    1.08929566     -0.10676146   39.26275412    6.40744169     -9.36493288   -1.83252837   -3.19218864
    1   -2.97634210    0.78029445    0.05335502      8.53461705   77.02382924  -14.23409055    -11.68591598    9.99444528    6.39378167
    8    1.03429779    4.58684401   -1.35780641    -30.29493842  -63.69220716  -35.26780301      5.59585036   -4.14299099    0.38650956
    1    0.97153337    4.05617668   -2.19337895     25.97381200   39.75288446   10.73001995      8.45199937    1.39852971   14.56245948
    1    0.41926765    3.99638045   -0.87898127      3.74579904   22.56473721   27.13299159     -0.78796860  -11.12833544  -18.33645549
    8   -7.14525112   -0.01080794   -4.51672166     -0.91718785    4.37593609    4.82423042     -3.61643974    3.78271009    0.15986677
    1    7.13203042    0.80386093   -4.92519650      7.86996276   10.89100649   -8.07768619     19.69069167    4.09396145  -11.40320746
    1    6.61402941   -0.39748929   -4.25908844     -3.03504938  -13.86270230    4.81420303     18.45360645  -41.83474850   -5.54957881
    8    6.03208539   -2.33518264   -6.46024774     50.46920637  -23.18928029  -17.41402437     -5.62614641    1.71051178    2.34154337
    1    5.50477865   -2.67721688   -5.72686266    -20.77581211   14.46086437    6.64789185     18.48155564    0.42794333   12.85698835
    1    5.52162609   -1.67100348   -6.90558477    -23.22352996    8.62982358    4.30299298      4.36494244   24.64741101    3.09566725
    8    1.54834191   -5.02375756   -5.19939711      5.57310721    3.95491463  -81.14531538      8.67556174    4.37479101    2.08596877
    1    1.11323091   -5.83499094   -5.50088643     -2.67870532   -5.06014118   17.45821613     -8.19651794  -10.89776622   39.44020171
    1    1.74728477   -4.64528437   -6.11847987     -0.06150131   -0.92698145   56.90324586     32.58348661   23.82429358   10.81783587
    8   -4.12342025   -5.86811504    4.59008607    -10.20763479   33.23558994  -10.14780285      2.35326220    0.39215584   -0.01999535
    1   -3.26361692   -5.44233970    4.71875727      0.82274251  -11.48639201    4.52055667      9.38250136   -4.43753457   19.43323732
    1   -4.03294105   -6.76300186    4.85654908     19.27682930  -29.57160216   12.23728710      3.31900349   22.82947574   -9.42084130
    8    4.57856156   -2.33358585   -4.25510374     68.75355915  -21.20573754   30.51427159      0.39048667    2.56994680    3.56447443
    1    3.73557634   -2.05953447   -4.49587270    -48.68535468   30.33438604   -1.30253013     34.44928987  -15.01292985   15.95026179
    1    4.89980114   -1.73402031   -3.52243120    -29.17369961   -6.89252580  -21.67732318     24.91536418  -33.09946378    4.62186456
    8    0.19064722   -3.10664519    5.89670572     -3.06223040   22.43862877    3.04641466      5.08718235    0.76197175   -4.55008926
    1    0.83484873   -2.68149984    5.30279544      5.01711750   -2.74121889    5.48568583      0.27072180  -13.75649317  -21.27384130
    1    0.18837552   -4.01410630    5.61417807      6.31772397  -20.44783207   -5.42943442      0.03998934  -14.69006650  -34.18441263
    8    2.93475418    2.20948495   -2.91862119    -62.85759777    7.69955227  -31.31538308     -6.98397746   -4.54045805    7.88461576
    1    3.77858166    2.15531281   -2.55011381     51.31266196    8.57011486    9.90986404     -3.39240185    8.82207586   -3.96066200
    1    2.96451698    2.92424101   -3.61350849     11.50897626  -16.09385614   23.66512955     -7.21104583    0.65286422    5.68080342
    8    2.24566579   -3.12734689   -0.88087992    -71.29477445    1.56157513  -35.85530129     -2.78676925   -2.10027500    1.27454117
    1    1.54033410   -3.44163418   -1.52562291     18.62796151   19.98694925   22.04692823    -34.96401322   29.45980837    1.77782477
    1    2.82907631   -3.85217110   -0.95664985     43.48612270  -27.35790597    8.00620108     12.36447995   11.84639281    5.04068140
    8   -0.29758911    7.08634259    0.55614895    -41.40784896  -53.55497745  -21.99516997     -3.65019188   -2.32350482    1.78457631
    1    0.61149566    6.76063970    0.56529407      5.10156808   32.21730019   17.38634081     -5.82602768   -2.73337800    8.36894137
    1   -0.41256894   -6.66426269    1.02126901     30.63831310   10.70064690    2.33437686      8.97191161   -9.53738039  -12.66783451
    8   -5.87260870   -4.58662583    3.22454588    -21.48505890   27.09914727  -37.92538957     -3.22122381    4.08297091   -5.06879327
    1   -5.40932634   -4.64249870    2.35456725    -13.46772774    4.54661222   10.21515542     -2.48830272   -3.72418580  -21.14405256
    1   -5.29524253   -5.11247025    3.76893594     19.49382671  -19.08479823   24.62120972     20.88447891  -12.36911471  -18.46473373
    8    5.08546394   -0.37903135   -2.37106310     21.06169439   -8.80556128  -15.92625559     -1.61503291    2.62749490    6.31994122
    1    5.40873362    0.53357736   -2.36328667     -4.89196738    5.42058967    7.68903610     20.03747853  -29.06170536  -20.94825403
    1    4.32069054   -0.36409157   -1.76584251     -3.65192864    2.58841465    5.86798489      6.28787630  -37.14762565   -2.47544617
    8   -0.40062347    2.72908185   -6.69094053      8.85192767   27.01256567   -7.08157207      1.67222657    2.20787467   -0.48720773
    1    0.37610372    2.14790024   -6.59611095     -0.16751827   -9.19802495    2.52243225     12.67515411   32.97517841   23.56740062
    1   -1.12917944    2.18856885   -6.42384217    -10.75928876  -13.18154384    4.27589501    -10.04770208   22.06184387  -18.60808920
    8   -0.26097079   -2.73622380   -6.00073759     -5.30641735   -0.31861300  -29.52873229      2.90377322    1.25971277    4.27746605
    1   -0.20588774   -2.82960162   -7.00817285     -1.43890275   -2.27225905   39.92540545    -24.44676261  -26.53490265   -3.10397787
    1   -0.53534266   -3.62007671   -5.68661188      0.94267796    3.09846264   -8.96082627    -21.64319911   -3.60068514  -25.19707090
    8    1.44531486   -0.11220092   -2.93787954    -42.89455869  -14.88115105    7.41522467      0.98605406   -8.05227765    6.26124187
    1    1.99586511    0.63271886   -3.06528920     31.02235188   33.95948865   -6.51654163      2.12420778    1.57231010   23.43021071
    1    0.56208836    0.34154745   -2.80874677     10.93544600  -17.50174101    0.58023327     14.97085731   10.67653856   37.87265937
    8   -0.26225460   -0.57862009    2.88173615    -60.96115769   16.67591526   27.01795697     -2.14918221   -0.91804036   -6.74181938
    1    0.30167577   -1.23970559    2.52959239      5.86013693  -38.66856317  -15.92501061    -44.44884383  -26.26156082    4.13054234
    1   -1.19501562   -0.98262978    2.95158763     48.87097081   10.48638490  -10.77041791     35.16208692  -29.65989811   10.23145580
    8   -3.38142663    5.87368122    5.42137563      7.05584079    0.86333061   -6.17718997      2.48354463   -2.15524015   -3.01158746
    1   -3.94633471    5.86015921    6.18021473     -5.02225901   17.62184245   38.86113238      8.80821120  -14.83399495   21.54897826
    1   -3.90809509    5.30277788    4.89412741     -0.26559073  -17.72046827  -39.77288534     -5.99274378   -7.80546006  -13.82673142
    8    3.01418494   -0.62168641   -0.78778243     21.38179507   -6.82177149   25.65434238      3.48523301   -3.35233838    4.94129592
    1    2.80367644   -1.56884148   -0.86817885      4.18850959  -13.81576929    6.79217423     -7.55404683    3.02029351  -15.76133060
    1    2.32109377   -0.26894609   -1.30169305    -29.88699947   23.39582716  -25.53372414    -22.64526899   12.06961007  -12.59998405
    8   -6.81232548    6.95849830    1.77074836     -3.98109616   58.84186673   15.73520417     -5.37603223    5.08272433   -4.75463758
    1   -6.96459420    6.06162317    1.63708641     -2.22178077  -51.70842812   -7.29121808     31.33353920    3.36070396    2.54478915
    1    6.90943005    7.26451286    2.12317369     11.07468667   -3.92138603   -4.86447725     -4.53387746   -5.69510522   21.22781192
    8    4.78955880   -4.92930557    6.93034091     20.40292062  -22.31796550   -2.73954413      1.12472632    2.09773641   -2.08512093
    1    4.14307874   -5.55912947    6.54304379    -11.31284236   24.56510156    4.40511681     -8.40468066    1.23805887   -2.39362129
    1    4.29672665   -4.17314594    7.27123220    -22.77965188    0.64709795   -4.64443470      5.72572931    9.98942717    3.37012984
    8    0.00616795   -5.83547514    4.62966639     29.69957088   22.06315583    8.60363717      5.33640666   -2.36055792    8.12777132
    1   -0.71395887   -5.28842253    4.30821143     -9.13641357   -6.12101080   -3.22185840     -4.39831856  -13.61894738   21.45861308
    1   -0.31112033   -6.73731784    4.52595492    -19.61205708  -16.02109099   -7.40681352     -4.22737573    8.93115323    4.06673918
    8    4.19371671    1.24248838   -6.13183444     -3.64594527  -37.84725862  -72.94754758      2.68724177   -1.91795720   -3.77036667
    1    5.05356277    1.65713753   -6.13782539     15.58331320   14.32083441   23.34225797      8.84544531   15.76933746   16.86227614
    1    4.28597088    0.75152333   -7.02196809    -16.98080674   13.77168543   44.69464598     10.13393576   -5.69852445   -8.36014841
    8    4.89375175    0.01153388    6.08463844      3.89271388  -13.45076421    0.32853821     -4.00835663    9.34288614   -4.41012533
    1    5.29569245    0.75494181    5.64293622      2.30309312    7.55838590   -5.05664887    -18.19372762  -23.74853750   25.64769991
    1    5.07134540   -0.71842726    5.45447838     -4.30218949    9.01170903    4.85102707      5.48032553  -35.12225401   -8.91217575
    8   -1.14213788    6.41983850    3.95927227    -16.89470850  -13.74934936  -11.04802691      0.37189773   -2.90564726   -5.46658831
    1   -1.78110631    6.03452656    4.63262922     13.15950334   11.77417837  -25.72626290    -31.17506535  -17.95759361  -35.42816712
    1   -1.42922285    6.02248021    3.09154987     -0.07279420    7.21091558   34.80662186    -23.95747632  -16.15594764   25.14727555
    8    0.02558055    5.37901717   -7.28467810      4.17500249  -54.67282959   -3.37978412     -1.54737212    5.09871442   -3.04238641
    1    0.47161441    5.31321681    6.43684035     -7.55176794    3.91774181    4.42524845    -30.47550044  -16.91990742    4.20064916
    1   -0.17634734    4.39600795   -7.11414874      1.51007884   42.65775541   -1.18005408     42.21365226   -9.17857965   -6.28644018
    8   -3.16959234    1.10279719   -5.51246082     26.11880884   -8.54990838   18.28374941      3.53412447    1.63001736   -0.07529857
    1   -3.01469737    1.75337378   -4.81255821    -13.80200437    7.67015500   -5.26674123      0.98653247   -8.16150266  -27.29298470
    1   -2.71855351    0.32925710   -5.11424305    -13.49759695    1.15679615  -13.53497996     -1.53691913  -10.80773409  -12.81432930
    8   -0.59723624    2.65250783   -0.17896338    -17.51394015   41.40939362  -64.24477052      4.27705494    0.54552940    5.35520367
    1   -1.49612646    2.53597008    0.12899709    -18.08144380   -7.50003073    8.55816865    -33.37919315    5.12103621  -23.70005061
    1   -0.09947266    2.23563272    0.45967377     39.05478068  -33.50808538   54.79371625     31.78700541   16.58639668  -15.76273917
    8    4.40684173    6.53876815   -3.12788028     20.55424613   18.66375096   54.08403567     -2.36506053   -1.05163648   -0.80894145
    1    4.79779342    6.60344663   -2.20617195    -12.48997282   -9.32767864  -35.72192368    -21.82600101  -26.26959480    8.91711456
    1    4.16657746   -7.10866140   -3.26860246     -2.87236537  -11.81816103  -13.53942907    -19.67292345  -26.62869256  -14.44218723
    8   -4.83096592    0.95244201    2.17686692      1.92495492   -0.58198405   17.89178939     -2.04413572   -6.36804192   -0.17102563
    1   -4.90910003    0.73489663    3.14140836     -0.64862059    1.14006029  -15.87083731    -19.63231522  -42.89630323   -0.44479444
    1   -5.47607324    0.37147063    1.76765884     -7.44970484   -5.74615109    0.62943645     25.60404803  -21.87360485   12.05210442
    8   -4.37010830    3.99886610    3.39260270      7.89995700   13.44542911  -14.26812141      0.55644592    6.82260775    6.96338461
    1   -5.15051157    3.58710106    3.78637495      2.72012576  -15.87610195   15.45989606     27.84671014  -14.50287384   17.03064727
    1   -3.62527396    3.39694340    3.55635728    -16.10013273   -1.13279559    4.35607973    -23.65742028   18.00893989  -11.10659681
    8    3.03608247   -1.04095599    1.87209734     -2.40762132   68.62918532  -13.68593091      1.99774419    0.52964790   -0.52926488
    1    2.97440248   -0.70941134    0.89510182      6.58101289  -16.61166472   58.88449263      0.87541335    3.64517047  -13.65590976
    1    3.02611400   -0.18531288    2.43854773      9.44713220  -42.23458238  -38.69417888      3.80021736  -10.31401844   17.85383339
    8    3.72100394    4.33189370   -0.09325763     -3.80874439  -63.35083651  -35.26969520      5.14601792    4.01739663    4.09883200
    1    4.05385898    3.57775836   -0.66753249      9.19764302   40.68994151   24.72762204    -47.80251323   -9.07168140    4.49428475
    1    2.77989268    4.13610813   -0.20829096     -8.59999805   20.78878020    8.51805301      9.25461626    7.68339444  -43.68104317
    8    6.55819832    4.19768073   -3.30643053     -9.59141501   35.63004477  -10.16106567     -1.99336607    1.62645005   -2.58961951
    1   -7.15271364    4.45902851   -3.60349545      0.56748473   -1.40833574    0.93481742     -0.29803254   25.43455485   -2.89396896
    1    6.08041887    5.06684164   -3.24451875     12.97187137  -22.30870433   -0.45498826     -8.48281637  -12.95443715  -12.72991236
    8   -2.18774520    5.18857037    1.44088438     12.86243721   -5.79898528   45.81426109      6.10005410   -1.56689640   -0.92609605
    1   -1.54427769    5.91277181    1.25396602    -18.04798169  -13.35560603  -33.25402861     16.13471853    4.47001371   15.94997444
    1   -2.62698916    4.90537020    0.63524887     12.59217587   21.99521601  -16.82976817     -1.20146860  -45.63200007  -33.83386576
    8   -5.55870222    0.89910786   -1.92582848      2.69617219   25.15295259   31.83142779     -6.17813327    4.85670214   -3.45669259
    1   -4.71002236    0.48955298   -1.69186657     -1.65813998   -4.05569523   -5.07884832      5.78009628   -0.08159819  -12.60725790
    1   -5.88820235    0.39455364   -2.64774599     -5.38122801  -19.76645574  -22.65991658    -13.41531124   -2.09916649  -10.39883965
    8    2.54180238   -1.81953828    4.92057870    -37.65555251   23.51701787   -5.55422615     -1.23119863   -8.35869552   -0.60081636
    1    2.12298759   -1.04969009    4.46876528     11.33853393  -17.40148597   15.55279979     49.54346430    0.01710614  -42.83626052
    1    3.34427097   -1.91681484    4.43385334     23.94494544   -5.88127852  -11.05003829      2.99364182   31.61783946  -28.18038071
    8    3.51193097    7.05022336    0.29123197    -39.94952958  -61.65880330   25.86293050      0.23781883   -2.91951909   -2.55969035
    1    2.82229784    7.02323400    0.99945016     14.65143618   29.51285244   -7.32118563    -33.77346783   -9.08649317    9.31815838
    1    3.42728680    6.06808216    0.07577518     30.13909810   38.43723589  -15.89140371      6.68838242   15.79330443   23.50094844
    8   -1.32521784   -2.33299946   -2.14934496    -29.42963179    5.39922134    5.68395004     -1.91147136   -1.21047260   -0.64952263
    1   -0.61447135   -2.91998802   -2.46991521     -7.63346349    8.36384044  -14.37463938     16.09015729    0.98175185   25.98641412
    1   -1.80868943   -1.95236979   -2.94753803     30.99014817  -18.35846331   10.55096520      8.26110779   -6.79881928  -14.49468770
    8   -2.28201214   -3.53765653    5.00631314     29.22633281   73.94214905  -39.38171069     -2.51618827    1.89825310    2.71755458
    1   -1.47468041   -3.01249121    5.23819645     -7.18138615  -41.19114527   30.57832632      4.70979830    3.08880014   19.88062783
    1   -2.51288703   -2.89376286    4.29033350    -32.81951645  -36.70727728    5.84114342     -1.48885167  -15.41641989  -14.18704930
    8    2.10750754    2.13771957    5.50978874     10.80178917   16.29843181  -29.31066057      6.30407788   -0.82910039    2.45234005
    1    1.88711586    1.70567129    6.33487856    -12.24277396    6.59035814   18.01409498     10.90536780   -0.68348043   -8.97364877
    1    1.73708908    3.05158138    5.53616012     -1.39322448  -21.53675797   17.34031334     11.62278678   -9.81905113   36.34836364
    8    6.86663839   -6.23861184   -3.56385226      6.80133383   18.64677315  -12.66914837     -2.21205017    0.94036351   -2.26532745
    1    5.97910096   -5.86449024   -3.80054601     12.83265407  -17.59485835   19.32288559      2.17350454   -7.65398311  -14.35858778
    1    6.80292684   -6.61573205   -2.66050486    -20.29677688    1.83677141   -5.77718586     24.44975419  -14.65713579    5.03225725
    8    4.66724663   -3.41416877    1.43900544     -2.71636540  -34.02289471  -41.37591056      2.94345671   -0.48835295    3.97770879
    1    4.49157693   -2.47023345    1.59278823     10.85026936   -8.84193678   33.18291722    -19.78837632   -5.25629473   -1.89491247
    1    5.13270940   -3.84990174    2.19357774     -8.36425982   38.48977728    8.67110496      6.24233153   13.40108160  -10.66433056
    8   -1.68517910   -5.29962108   -5.45412762     12.99975931  -16.14114789  -33.88127990      5.93899537    0.89828350    2.62177829
    1   -2.49304447   -5.03007091   -5.97866552     22.58258866   -7.58034316    0.39832802     14.65595371  -35.86699446  -27.84781164
    1   -1.15809628   -5.91529459   -6.08154693    -30.37591242   37.39469013   22.84951307    -14.46505813   18.73732352   -7.89175762
    8   -6.27728123   -3.81760274   -2.90996529     45.96449240   -4.68521034   26.61681793     -2.33167066   -4.52615085   -1.03574560
    1   -6.89464778   -4.55047371   -3.07000912     15.76402197  -14.54100605    9.33673110      8.44616223   16.23045180   10.49316518
    1   -5.47238807   -4.15953140   -2.35283266    -60.72785642   10.83777977  -37.64432826    -38.32184566  -20.20985771  -14.37138821
    8    6.61381709    7.02345580   -1.14739229     12.40988260    6.47348337    9.37370264     -3.49388036    4.71737961    4.14013490
    1   -7.06560672    6.80013298   -0.86446545      3.18430928  -14.36373112  -23.88897738     -5.23082139  -11.29190760  -33.80022611
    1    6.29281843    7.27488482   -0.29535796    -24.63906363    8.36603377    8.71086968    -14.70153599   11.89139696  -26.74650594
    8    3.63135393    5.27004498    4.42259839     42.58137886   14.85746028  -28.42259817     -3.33043464    1.95561164    4.36295116
    1    4.38096271    5.87213829    4.45139962    -11.09402500   21.06445057   27.93455379    -12.57004884    9.64114551   -5.67219546
    1    4.01894098    4.76475273    3.70804375    -20.13176645  -35.70819778  -10.37303711      4.71557448  -10.34146842  -12.19038403
    8   -6.47466962    4.26161193    1.34804820     -7.78962235  -42.38940485   52.15047164     -4.70262890   -2.63426944   -1.16773047
    1   -5.72542060    4.07969533    1.98666677    -16.61336256   14.47181381  -25.69311378    -20.50206764  -15.39120026    5.80011440
    1   -6.09445313    4.74441345    0.64251502     23.62991003   21.87244556  -25.13732689     -4.16939331    4.68988443    8.56159254
    8   -4.90950162   -2.00266630    0.60876407     -5.10615321   13.65415517    5.53419775     -3.26232964    0.23351802    0.79930264
    1   -5.88265013   -1.89236702    0.82099555     29.48764310   -9.69168604   -6.40940038    -10.26411260   10.28924185  -10.63790795
    1   -4.73514570   -2.96597598    0.66157108    -17.55703986    1.77757066    2.02068533    -11.46921633  -16.94503878   -9.70494979
    8   -3.97320266    2.72791558   -3.28034363     21.19001661   -6.78326946   -3.05838334     -2.31752730   -3.11228594   -2.43326159
    1   -4.30657508    3.32130141   -3.97714900     -7.17931176    5.24512053   -0.23934631     12.96794780    1.44599537  -33.17790441
    1   -4.77620228    2.42218370   -2.84809723     -6.96217707   -6.28131762    1.75619976     11.63624810   -6.88454795   26.45177524
    8    1.18681514   -2.91324916    1.73266472    -72.25502740  -44.74667902  -49.12094306      0.44096194    2.88608948    6.03289021
    1    1.93683793   -2.46626397    2.09923019     39.40440598   15.85639275  -24.00956265      7.24771667   -8.22415648   19.31628909
    1    1.29741858   -3.03535677    0.71197110     25.64949282   22.81536658   70.55239667    -30.22047136  -33.86013266   37.54397498
    8    5.27403397   -7.29509226    2.39482585    -69.18638884   89.28348276  -17.70499055      2.93732951   -1.05264165    0.03341753
    1    4.70580244   -7.26290464    1.63311307      6.06620109  -70.78579386  -39.55850770    -19.21045719   36.53539182   -4.38922496
    1    4.90782467   -6.38260559    2.54192848     56.47433758  -16.85293455   59.36479110    -15.11082197   -3.09613312  -31.21311958
    8   -7.29016868    1.64815106    0.30766990     33.64576439   12.23497376  -21.59668576      1.53728332   -0.94178087    4.70836696
    1   -6.87220142    2.42534347    0.70321580    -10.88844081    5.25343836   15.41383539    -10.83801005   -9.66460176    5.37560932
    1   -6.63883633    1.48802761   -0.41836423    -18.64869072  -13.10912856    5.60118713     22.25371848   18.44512560   -6.77173121
    8    6.52080855    2.34906455   -5.71583074      7.16081289   10.50161595  -19.96102006      0.46181752   -0.72960511    6.52610113
    1    6.60428047    2.94690922   -6.47831405      2.97046387   -8.61911846    0.34453382    -18.56675361  -11.07537373  -22.10861118
    1    6.36045967    2.96791096   -5.00824955      0.85192437    5.51151507   20.11822518     -0.41105059   24.33688825  -22.19819426
    8   -5.18002448    6.38288853   -7.28097668    -18.13292205   33.43024616   14.88849259     -3.65901174    2.35309464    0.67413581
    1   -4.88455356    6.95175762   -6.55859943     15.13697402  -16.26756071    9.27156969     19.74958197    5.77430861   10.61099948
    1   -5.95331836    6.91214048    7.06696892     -2.46416260  -19.29692769  -17.22928594     10.81122519  -17.44284752  -11.75507521
    8    5.89325405   -4.73376331    3.51462962     99.38888656    9.27893734  -24.60342733     -9.18373980    0.66650212   -2.27665199
    1    6.91696009   -4.67372984    3.39296919    -62.90163847   -9.00066036  -21.38899474      0.50696887   11.82128053  -19.33869526
    1    5.92818805   -4.66948856    4.43771119    -30.55930929   -1.92735394   43.50518469    -49.34234737   -5.10181663  -24.24038487
    8    0.60140570   -4.47686842   -2.76589319     -6.47230871   -6.73724454    1.51996154     -1.19306915   -3.45963958   -1.22375094
    1    0.36973391   -5.35623891   -2.45573561     -5.62592446   -8.56950226   24.48055299    -16.72482720   16.92379436    1.40667091
    1    0.86055269   -4.76253013   -3.65078083     13.29076008   22.96960164  -19.19044124    -14.84185699  -15.48994162   16.61077899
    8    5.75636001   -1.50658514    3.78969376     27.02468366   10.75040349  -26.87127233     -1.64161884    2.16673208    7.17760356
    1    6.38974758   -2.07138985    4.20623616      3.17604120  -16.00547663   27.68984213     26.73323255    8.83360903   14.20070866
    1    6.34282766   -1.22492168    3.05256323    -28.65783714    8.93489937    1.33340350     31.66273744    0.69805019   20.69328444
    8   -2.49253612   -1.44342676   -4.38494397    -35.10768073   -9.02614007  -35.43782302      0.89135681    5.03013031  -14.38570485
    1   -3.38704728   -1.63965573   -4.86403362     60.97705689    3.71265630   27.73855209    -13.33330656    5.02525948   21.35304654
    1   -1.77222565   -1.76051669   -4.98724834    -24.76358613    1.98464162    4.18591676     -6.12928312   13.40099690    3.20208322
    8   -3.54616848   -4.40864227   -7.16110058     -7.05764878   -2.86710483   -3.57508136     -1.58210032  -10.63312100   -0.01466887
    1   -4.53515279   -4.37927536   -7.29461103     35.56547270    6.01820881  -14.68665885    -14.74533545  -12.64538680  -16.63150296
    1   -3.11214188   -4.14004021    6.57737717    -27.35744134   -2.72571816   13.63408375    -31.23779152   -7.51281255   -2.38413250
    8   -0.02750802   -6.50663925   -7.18843122      5.57412721   -3.61096375    7.51634299      3.03731110   -1.80382562   -5.09997997
    1   -0.10278439    7.14461999   -6.89389260      5.89838911    7.27618155  -19.52008305      9.62118306    9.56917668    6.91175899
    1    0.43120581   -6.54984735    6.53827590    -12.42401582   -4.85615147   15.98728498    -22.60831703    4.09319320  -10.62281818
    8    3.92258844   -5.43985160   -3.84688761     42.69337651  -19.13731711   21.53661073      2.01048080   -0.22846129   -1.48118499