 BEGIN_INFO
   #
   # This is a XCRYSDEN-Structure-File
   # aimed for Visualization of Fermi Surface
   #
   # Case: Tight-binding calculation
   #
   # Launch as: xcrysden --xsf HICOLM.XSF
   #
 END_INFO
 # estrutura final
CRYSTAL
PRIMVEC
      13.96607941       0.00000000       0.00000000
       0.00000000      13.96607941       0.00000000
       0.00000000       0.00000000      13.96607941
PRIMCOORD
  300    1
    8    1.95349642    2.28254704    1.60827785     40.23103274  -19.03293688    3.16356346     -0.98089941   -0.37892172   -2.34019202
    1    2.89495652    1.97114170    1.71194689    -27.86562702   -3.55929065    2.85852291    -18.27735571    3.09372815   -6.69438318
    1    2.11244630    3.15698168    1.23608015     -9.63608493   19.35647160   -6.41547364     -8.16482344    6.66402769   -2.29464687
    8    3.91163002   -6.03218689    0.28711573     11.22042403  -18.12214851   36.15478302      1.49635983    2.31030004    0.53930382
    1    3.83779731   -6.71533841   -0.39902204     -3.12302779    0.76119742  -11.79667468     -1.15271935   -9.63624184   -9.02409919
    1    3.76487917   -5.20460763   -0.16168926     -6.04053876   18.12695331  -21.83163710      4.44167271  -22.55126609   12.99366320
    8    5.74931346   -5.40683760   -4.89737578     55.39030841  -48.84117233   16.56201713     -0.43307069    0.58457736   -1.48320328
    1    5.00107763   -4.99999576   -4.48206420    -24.15657719   29.94709078  -19.45029266    -11.30975417    6.51930744    1.54957216
    1    5.89916408   -5.04941348   -5.80362124    -29.93259640   19.59743175    7.60285404      1.53905124   -5.76608487    1.44168286
    8    6.14770768    0.49412916    5.74939968    -30.88181064   -5.84450384  -10.63929461      0.50907383    2.13873268    0.06443602
    1    6.91817067    0.38552807    5.15422809     -6.26148266   -3.85124713   -2.90500213    -14.38488712   -4.30809660   -6.53778286
    1    5.37429384    0.08367917    5.23511787     34.42590548   12.48736303   15.03524230      5.04877564   -3.35490736  -13.52051834
    8    1.37787798    2.80494020   -3.51036979     -4.86678409    4.19993649   81.92977114     -0.53875064    0.03447862    2.91784270
    1    1.82734832    3.14172012   -4.27552912     -9.59314876   -9.68207173  -48.64023931     -6.30284983   -5.11372981   -7.46089006
    1    0.66617006    2.15995317   -3.74188893     12.64641130    9.06475106  -35.89688757      7.90847895    2.09449805  -10.84949259
    8    3.02227410    1.51166409   -1.89214467     41.82400129    8.00774705   -7.02089241     -2.94383343    1.06413088   -2.27404972
    1    2.33404682    1.20042760   -1.32546881    -26.08392214  -10.17834210   15.88354206      4.08225124   -2.29331581    3.05773098
    1    2.52855554    1.96512634   -2.58806671    -12.98978511    4.99901927   -7.56210410     15.06219443   -6.47206409    8.85422775
    8    4.35277031    0.80965918    1.78979247      7.88994821   11.53815673    5.71077974      1.40514379    1.34937660   -0.72833398
    1    4.44728958    0.05014802    1.25341497    -17.73139262  -39.49940870  -16.24300060     -0.34668912   -1.19249873   -2.98188569
    1    5.13288600    1.26685979    1.46272041      7.51165682   28.12258433    8.57213311    -10.49926866   -2.54586141    6.98749356
    8    0.02658786    4.44998055   -1.81588215     -9.45102773  -13.15295488   11.21134535     -2.67867437    2.61046622    0.24849581
    1    0.64142318    3.93116038   -2.41678532    -22.04308446   -2.69813314   26.43650008      3.33979376  -18.91200188    1.89695148
    1   -0.41457170    3.79165153   -1.18000562     30.96329405   17.11516180  -40.06519316      0.43948235  -17.40102867   -2.63710707
    8    1.20229825   -5.08223126   -3.39221013    -52.58332258  -14.71481335   88.59091506     -0.00055417    1.77341898    1.57462001
    1    0.82766515   -5.66583461   -2.64972909     31.22545515   -9.04255146  -50.85801848      3.92219191  -18.40957134    3.87299119
    1    0.87104284   -4.27713456   -2.94557001     17.55630922   24.83006431  -33.42474561     14.33234790    4.20111684  -17.29818937
    8   -3.32967480    1.38955727    1.00346338     24.79517874  -13.15041294  -39.46091260      0.46464630   -0.10188832    2.46597621
    1   -3.81005983    1.68171018    1.75460740    -22.11275193    7.12000866   31.04172807     15.26438870  -11.47171155  -27.77277505
    1   -3.75638779    0.54352159    0.75163634      0.33461837    6.46347784    6.19557724      4.27679457    7.70433749    6.80408739
    8   -1.42259801    2.37598581   -0.57327581    -44.54900715   37.93887938   -3.44756328     -0.33325614    1.47122770   -2.19209919
    1   -2.15216692    2.02379791    0.07334723     64.25515300  -14.42127612  -23.87052665     -1.20714678  -15.41581042   11.96918669
    1   -0.60270287    1.82687892   -0.58441013    -22.52464673  -25.01595817   28.19318065      2.51539621  -12.85430660   14.55646286
    8    2.46861260    4.72206920    0.66750218     14.88317570   -4.06341721   35.98772932     -1.11539745    0.90979254   -2.23883386
    1    2.67239598    5.09874105   -0.17723635      6.69550300   11.53604248  -23.61291684     -8.52548385   -7.49674555   12.25271345
    1    3.30285271    4.90468973    1.19646995    -20.53175699   -5.08007951  -13.54394368      6.28079404   -0.37477536    8.48393109
    8   -1.85872044   -3.18685886    4.56477824     30.41553494   69.05183957   -8.92331580     -0.63019100   -1.37252411    1.36729905
    1   -2.07071954   -3.94319766    4.06720274    -10.28270078  -40.25360890  -25.60849983      5.77839818   -0.21035093   -4.28786489
    1   -1.40114760   -2.60019243    3.87423715    -20.97673613  -26.36113842   31.59235615      4.42172423    7.97346434  -13.81661128
    8    3.30576319   -6.45911329   -6.46518595     14.10369554  -12.96776689  -13.99057070     -0.45431386    0.61359642    1.84800194
    1    3.19583195    6.95776446   -5.67989825     -6.89296168    0.52030306   11.31297340      2.66993210    5.84648772   -7.54864414
    1    3.87349771    6.90727985    6.95696832     -7.80778825   13.99734446    2.95390890     10.50220095  -13.52706365  -14.02360920
    8   -6.51190317    4.00256475    2.32024064    -13.21734902 -110.26193855    1.79866295      0.63246698    3.10514975    0.44170649
    1    6.95491494    3.37694355    1.64807802     27.87023986   53.92612407   35.33087776     -7.29889487  -13.76559906   -7.09205416
    1   -6.60880253    4.85232913    2.00924063    -16.46367091   56.48068266  -37.29358487      1.67062857  -19.44812752   19.33288511
    8   -4.16819582    4.63511650   -2.69273885     -3.72539506   53.42370105  -34.44200149      0.71773110   -1.24014203   -0.99465424
    1   -3.99892583    3.67324138   -2.69009690     -9.55540195   -3.78970414   41.47149166     -3.72561338   26.25014290   10.89612006
    1   -4.45990489    4.99308479   -1.80818692     10.38401941  -45.69051158   -5.63789130      4.22468426   -7.55691561   12.80267368
    8    0.00634628   -0.35967178   -6.75705754    -50.47647477    5.11427584  -56.09626086      0.05548210    0.73608006    0.36706850
    1   -0.11482279   -1.32801740   -6.84406809      9.79450455    0.53224832   12.46395649     -0.75351726  -12.26311434    3.40516327
    1   -0.65451942   -0.05577587    6.48197375     39.89532874   -3.11226428   42.06173385     -2.81606842    4.32336548   -2.64895591
    8   -6.04786624   -6.33385465    3.17267204     21.44733543   -5.56530922  -21.70761464      2.90848974   -1.81176904   -1.44060775
    1   -5.91103266   -6.11224538    2.26429144    -43.38709748   29.56536840  -30.52210577    -25.20721356   10.10110274    3.50500661
    1   -5.18176651   -6.71704678    3.20115454     23.49972567  -24.85455910   52.46997324    -12.62772217   -0.79549948   25.35032749
    8   -3.32357664   -2.60844423    1.88595356    104.64650374   59.53625853   14.12265187     -0.13926404   -1.71296636   -0.37319177
    1   -2.37877346   -2.09234357    2.04210406   -101.49490870  -58.55725882  -15.28187508     16.72339442   -1.78385585    0.79875828
    1   -3.07182054   -3.54772498    1.95922841      2.74468169    0.66711370    2.57852446     11.02353554    7.71431438    2.57532603
    8   -3.06403751    0.71324509   -4.68048634     16.98132506    0.00517890   23.73980182     -1.24561005   -0.30632218   -0.98558432
    1   -3.59411001    1.00894828   -5.44156494     -0.36093542  -20.60463085   -8.06886632     10.62761757    3.01482190   21.69935205
    1   -2.87029372   -0.25013082   -4.81893264    -16.76681419   17.88386437  -15.81221615      6.95566886   -3.36894033   13.13591037
    8   -1.46138508    0.59873188    5.09962300      1.65192263   33.48585465   -2.53598980      0.99545432   -0.88085309   -0.34072510
    1   -0.89268732    0.70645926    4.30125920     -4.51165111   -7.91606811    6.52041855      4.98963607   -4.63910849  -10.97122124
    1   -1.66756452    1.56163971    5.31281127      1.92648524  -28.44354980   -0.43123141     -2.06344185    9.33592807    1.31656138
    8   -2.25978498    4.81394488    0.50460343     14.82879494   12.00421638   19.37109932      0.09826808   -0.22511395    2.09093009
    1   -2.00172703    3.96679566    0.06452180    -30.18147927   14.24570718   -4.86175305      3.27541153   -2.46621161    2.38595283
    1   -3.18924942    5.07172863    0.27060671     12.77725264  -27.85424781  -13.10021059     -6.81920665    0.04489790    2.21343943
    8    3.76346311    3.23094873    4.45630198    -35.11329552  -40.34535536   11.83835215     -0.35448575    2.74638564   -0.56954585
    1    3.48956240    2.35857229    4.81858231    -16.97913791   20.96866686  -15.93860962      6.36614158  -10.12811946    6.70568892
    1    4.65806064    3.17533259    4.72023685     49.48228764   20.49962012    3.03377195      6.34523077   -5.76924629    4.30152463
    8   -2.48447831    4.20723211    3.21727185    -47.61166623  -63.54440478  -51.75346753      1.33035665    1.40788341    2.42094192
    1   -2.20197494    4.42186593    2.28547581     -1.66518834    2.59291209   26.39065402      1.83208973    1.06688543  -21.39682912
    1   -3.14891232    3.41994660    3.02195514     49.02445103   62.36832070   26.55856405    -20.67324900  -25.16318282  -10.24950920
    8   -5.90851463   -3.17344493    2.76427757    -98.57406842  -13.43608240   49.25914955      0.10122041   -2.17681531   -2.14957665
    1   -5.11800599   -2.82546619    2.60291037     94.66642795   35.25261056  -26.55787720     -6.37927940   -5.06200341    1.41792904
    1   -6.01833422   -3.83550291    2.09358267      7.14416751  -21.07648565  -26.21294090      1.90061658   21.26316593   18.59058800
    8   -4.97419794    5.84291832   -4.97248487    -40.02874752  -38.12911804   91.67348298      1.08097800    0.12854959    0.87567157
    1   -4.78646608    5.38567238   -4.05461683     10.18367990   30.73081823  -64.88387336     14.53882908   -3.50592436   15.48646781
    1   -5.97520348    5.83644381   -4.91063686     29.07353877    8.50302240  -23.98805681    -10.93100999    7.45218136  -11.00503324
    8    1.39016945   -4.73864661    6.24271595    108.76006070   81.79656570   34.47209522     -0.82617237    0.92193592   -1.97277285
    1    2.27542183   -5.13609159    6.60089023    -69.26331159    3.79426686  -26.25397526     -7.76964786  -18.04312135    0.08671444
    1    0.83062850   -5.42014616    6.08222624    -38.31904422  -83.97850897   -8.88326140     29.08862447   -0.40967378   11.08600571
    8   -2.33912299   -5.11951418    2.58124619     64.41149595   16.17236177  -79.40460727     -1.51297839    0.20703909   -0.36075950
    1   -2.79432948   -5.81935676    3.05142890      1.10503700  -32.69145249   -5.81666190      5.99576693   -6.87700493   -8.49613488
    1   -1.73694774   -5.55135360    1.80996283    -65.18729574   17.56436530   81.19238255      4.72574947  -11.66420643   -6.12029912
    8   -0.99274104   -6.80421643    0.86868128      1.76144473   -9.55330715    6.38023985     -1.09977011   -0.97460400    0.99188691
    1   -0.28790584    6.84166218    1.46700278     10.08044248   14.58026552    3.39688716     -0.46603631   -5.05782507    7.40609470
    1   -1.44703261    6.31474773    0.72626068    -14.30284641   -0.61617485   -8.44338099      5.26448485    2.73455345    5.01407821
    8   -6.00676601   -4.90824819    0.68597180    -26.39122287   24.24398581 -137.98737524      0.19441601   -0.79494814    3.39265367
    1   -6.77303226   -4.42240564    0.02254970    126.40980341  -75.17447032   78.54681521     -5.78413589    6.72117245  -42.43271439
    1   -5.20847027   -5.28378574    0.05181096   -100.57386529   50.67256549   52.98178588     -2.47488670    5.25744825  -32.32284444
    8    5.30634213   -2.75683829    2.91037819    -39.33691895   24.22129947  -79.44339347      2.65776154    1.01151457   -4.21695167
    1    5.22449094   -2.52710958    1.95007898    -56.04602191   -7.18118073   26.94837082    -17.24379395  -13.97533475   30.20217606
    1    6.19748802   -2.74698307    2.78778422     92.10880154  -15.80645727   51.77461512    -11.00078741   -5.08530581   23.58496918
    8   -5.77011841   -4.46077270    5.12882003      1.70049199   25.14926800   46.40144229      0.22443320   -2.50408140    0.71056486
    1   -5.77106666   -3.78621562    4.42999733     -2.80330174   -9.54910766  -16.07288542     -5.35680941    2.08901745  -19.46300077
    1   -5.86943776   -5.29504585    4.69023740     -2.18830600  -15.67486988  -29.81174471     -3.04133014   15.75605345    2.52311529
    8    6.81087793    0.98584907   -3.56327153     -4.62863850   62.83954916   21.10395780     -0.28281921    0.69283403    0.43051237
    1    6.54867919    1.93932220   -3.66000074    -10.33493597  -24.50041497  -27.15525589     -7.35692013  -10.17715137   -5.95730445
    1   -6.61512563    1.14898135   -2.77108351     10.41527472  -34.09975296    4.62043868      4.65883802  -13.57134062    3.31431854
    8    1.59337153   -1.74371108   -0.12712003     32.54195393  -33.65099014  -18.81554329     -2.36586956    0.41381854    0.27843404
    1    2.29028371   -2.38587781   -0.54700598    -45.64222010   36.79829693   38.50642415      4.78705199   -9.29993862    1.88206110
    1    1.51611999   -2.02909017    0.81819429     10.14550361   -5.44047436  -17.25121704      2.11285609   -1.29831015   -3.72011140
    8    6.72047142   -3.77190432   -1.55298980    116.05704660  -84.17620476   27.40435841     -0.34513095   -2.02498060   -3.29913888
    1   -6.90232209   -4.38628846   -2.26591472     20.47096708    6.87365257   41.48348397      9.78913625    5.20995702   18.94561987
    1    6.09169585   -3.52065950   -2.02844945   -137.79085117   77.38595719  -60.15327658     14.83936799    4.53865432   25.30646330
    8    5.75494633    3.40816123   -4.17612778    -13.62968122  -38.17574111    3.15398761     -0.45941021   -0.83299576    2.55233019
    1    5.35124673    3.00101684   -5.00040990     15.61610996   27.64822786   16.43332475     -2.49902969    4.56281959  -16.26817157
    1    5.98124395    4.32481679   -4.39475467     -3.39092979    7.35456509  -19.69889631     -3.86826565    4.64013259  -14.26780523
    8   -3.46348398   -5.86918346   -5.37310839    -29.49396953   -7.23386425  -78.75699358      1.97552270    1.30554913    0.01162738
    1   -3.06741357   -5.68744279   -4.57490061     29.94470211    8.66807633   69.45407041    -11.18053975  -11.25437582  -18.23453136
    1   -4.00724978   -6.66194941   -5.19842078     -0.18282404   -2.02830290    6.96986745      7.96594525    8.30118127    3.39843291
    8   -3.52951468    6.75080437    3.78127382     12.46709575    4.39508872   39.30250089     -0.51288655   -1.21885466    0.83135696
    1   -3.16110845    5.88007042    3.62026388      1.40215562  -15.72874103  -14.51071927     -0.56403650    7.62854823    7.11601823
    1   -3.22208579    6.87612872    4.72853694    -13.29040360    7.45052452  -24.18732116      1.90838107  -11.66895357   -8.19726035
    8   -1.66973596    5.31565835   -3.79424097     29.17560135    7.68050790   -6.54526704     -0.67720597   -0.44933405   -0.12446393
    1   -2.53279857    5.11741920   -3.49727553    -40.61161645   -4.52558192    4.34735126      0.38035619    3.74196749   -2.56696222
    1   -1.14376818    4.97954157   -3.05807163     11.10464586   -1.65010564    1.79435159     -5.79800811    0.50066157  -10.09823061
    8   -1.77504727    3.17157105    5.63193752     39.59898021  -23.83645949  -56.92134340      0.21112504   -0.18969465    1.92348892
    1   -2.36664983    3.60033082    6.22080016    -30.70478489   28.57238469   14.81545683     14.46761636   -5.80311828  -22.96636048
    1   -1.88811910    3.61396980    4.72676231     -8.30162665   -4.56437230   39.78163283     -6.11966498    4.04475339    4.91894345
    8   -6.87756292   -0.46967065   -5.84829534    -89.60400160  125.43006365   47.36676012     -0.46831704   -1.12084953    1.10682412
    1    6.74624303    0.22301791   -5.14830288     64.27492085  -78.78654704   -0.35115713      0.78212592   -4.97080969   -3.16146976
    1    6.49653291    0.00618425   -6.47508605     27.54481069  -51.32306898  -44.79017688      3.01083642    3.88403927   -2.60088888
    8   -5.73554917    0.03629804    4.01252092     35.02242818   27.63568253   -9.15918331     -2.92736889    2.67834308   -1.79374902
    1   -5.21440915    0.82682759    3.68221616    -26.48963878  -22.35964268    7.48552728     -4.48912755  -19.70598775   10.02510943
    1   -5.00430307   -0.49683152    4.39581488     -9.50436570   -4.69473582    0.35774628     11.96444680    0.59722575    1.25813287
    8    4.27148854   -4.70829227    4.45387510     41.49235681  -16.97787223   51.88506650     -2.08926312    2.25084201   -1.25845688
    1    3.54261315   -4.93915694    3.95611808    -58.99547767  -19.09906483  -35.32077203     -5.82628786  -16.13399369   10.44330861
    1    4.59822276   -3.97147314    3.96348066     16.75934809   33.19463047  -17.96725383      9.77789275  -10.47948468   19.16793992
    8   -4.45447011   -5.82371613   -1.40593498   -104.29707451  -28.85116307   94.07118317      1.61594250   -0.58969836   -2.16217892
    1   -3.67637045   -5.72194305   -1.73922712    119.55517459   18.64839176  -58.25861544    -22.64156904   -5.91181476   25.69482221
    1   -5.02803326   -5.66650545   -2.14430489    -15.23106842    8.54893047  -30.22051978     -1.40582502   -3.06496334   13.43919291
    8    1.52444972   -2.82459162    2.42671737    -16.76889329   35.75133616  -17.48423318     -0.43295501    0.97146537   -2.08798219
    1    1.81843265   -3.75139995    2.30614317      9.76964268    2.86843247   32.05820842      7.59240167  -14.12493521   -2.70273153
    1    1.75531848   -2.49164034    3.34470238      6.04636419  -38.66126444  -14.98397791      2.63759807    2.06081646   17.23595115
    8    2.45602705   -5.42383916    2.48228670     84.30858378  103.26441971    2.74933868     -0.00234356    0.09747092    1.22579918
    1    3.15258859   -5.57299673    1.73771426    -61.15813403  -32.33010230   28.17038850     -3.45716082  -10.96007140    2.60903059
    1    1.81742001   -6.08022822    2.54801158    -22.23151433  -68.97142328  -32.09374284     23.74379050   -1.98131609  -12.62336839
    8   -2.67012644   -1.90019233   -5.52889277    -56.82731234   -0.73159582    5.17469981      0.47320862    0.00653716   -0.16472768
    1   -3.42394575   -2.41256153   -6.01178850     60.21201355   18.09783532   15.80620722      7.20539985    6.38668286    5.68704763
    1   -1.82567762   -2.19384841   -5.89696324     -3.06983669  -18.75677785  -19.40301181     -1.48852026    9.56329321    4.15154336
    8   -0.65003328   -2.96033457    6.97402532     70.02268563   -1.80005474   94.54890380      0.70371987    0.22213361   -0.18910033
    1   -1.08855859   -3.03072626    6.18336728    -23.06811303  -24.76289089  -74.95010002      3.74330814    3.65600273    3.10847558
    1    0.14327808   -3.59557516    6.95786337    -43.88212760   22.81635207  -19.00379024     -4.55073842    0.81268431    1.70540830
    8    1.74018300    5.09877225    4.74226361    102.69571020   33.00315597  -56.14689096     -0.76710384   -1.00899264    1.11234380
    1    1.44247902    4.44689712    5.20384453    -97.09506636  -78.53042781   79.37036197     15.36704187    8.56772863  -17.40388697
    1    2.59471902    4.59851559    4.64062037     -2.51053707   45.10431122  -24.23011389     -7.22400854   -0.50981805    3.89851921
    8   -5.15239386    2.84002212    5.78671266     57.42178840  -32.89683865   79.78155134     -1.57231336    1.82612334   -2.05365228
    1   -4.96795695    1.95499833    6.33258439    -17.11222338   65.49121516  -45.50741093     18.36327188  -14.74864288   28.64099455
    1   -4.56141244    3.51254549    6.30527256    -36.42648274  -34.40317201  -34.25234838      3.51403587  -18.06944011   16.83750444
    8    4.95921075    3.46492947   -1.57652672     -3.15245411  -15.13575058  -54.32793973     -0.36755778    0.15676463   -0.75773176
    1    4.27417357    2.79047500   -1.64581067    -17.11791772   -4.25529398   29.21540312    -11.93052294   -3.76250291   12.11668104
    1    5.23819419    3.38985132   -2.52687972     16.25698749   23.60079017   21.15738998     10.54539590   12.84611351   -0.88525124
    8   -2.47074418   -2.52792964   -2.86856290      1.68308061   -6.94931957   37.62270099      1.42579831   -0.02892455    0.37524248
    1   -3.35953570   -2.34082479   -2.45651500     16.09768611   -0.33065102  -25.18520060      7.10442365   -3.09408643  -11.09991722
    1   -2.52491763   -2.28190298   -3.79942803    -18.24936083    7.36449058   -9.92661356     -9.68318864   -0.42934694    7.60779214
    8    6.61642478    6.20085000    0.79711404    -27.58950652  -18.68079290    6.92267955     -2.15936064    0.95617304   -0.58024800
    1    6.27382127   -6.92156993    0.58688588     10.92901742   38.60506915  -13.49235552     11.98456779  -16.97519916    5.18443378
    1    5.76198318    5.81884085    1.07793553     16.84040186  -20.29218733    5.12794980     14.14601280    9.34034000   -9.43477032
    8    4.96713283   -0.29019531   -2.03496035    -17.59119712  143.86385802  -68.38542396     -1.28944793   -0.57699794    0.00532377
    1    5.58250426    0.23091142   -2.65402028     12.19858698  -66.36943001   28.75761774     11.86648034   -5.87799296   -3.40767472
    1    4.29822539    0.50493118   -2.12444212      4.13433297  -81.24688892   41.40897227    -10.86989811    4.27456930    3.13129006
    8    3.78149520    5.96031713   -1.55001329     40.56161245  -53.83205375   -5.71409584     -2.44539138   -0.04369448   -2.38467335
    1    3.49825041    5.98155926   -2.45753170    -23.16162134   20.19345178  -21.63249815     -4.06373149   10.50439895   30.53151901
    1    4.38422926    5.15293265   -1.63816532    -20.32304657   32.95744023   27.09004532     11.30320691  -16.34850594   14.44875519
    8   -5.89993886    1.24433981   -1.12834847    -55.01921529   14.95860396   -2.42794503     -0.10947947   -0.88646170    0.30526433
    1   -5.58875463    0.50308694   -0.63815867     21.84379352  -22.84664164   11.48699613     -5.24090741    1.48087358    1.33641281
    1   -5.12626447    1.65603970   -1.48016635     36.96423164    7.08069218   -8.11122901      0.46377432    2.82915426   -1.08291030
    8    5.09080473    5.70245781    6.32576412     14.38265408  -39.60782773   -4.70156997     -0.48442201    1.79185848   -2.43190574
    1    5.23741653    6.19865831    5.50593158      0.00753662    5.83216139   -7.60622529    -14.75696561   -3.47678224   33.00027115
    1    5.44653392    4.80052825    6.06337740    -13.51312259   31.91370837    9.75749929      3.55508243  -22.48339783    1.63314853
    8    3.62923127   -0.06232429   -5.64794804     -2.81556091   14.35789805   15.30404460     -1.55247398   -0.77510659    0.52901923
    1    3.00917529   -0.38690880   -4.99313645    -16.19375663   16.87243169   24.23660379     14.21802079   11.91400860   -7.87875025
    1    3.71598197   -0.86737863   -6.11796088     18.41975682  -26.86327256  -39.18371323     -1.51417847   33.95360393   18.97678378
    8   -0.87979964   -1.54795147    2.48459702    -12.41918586   17.39456490    2.92416214      1.22511700   -0.81079459    0.47956740
    1   -0.58821981   -0.59207439    2.57543071      5.02459799  -33.29385952   -2.89481692     -9.57982721    5.82342961    1.33507215
    1   -0.05514270   -2.06836819    2.38764976      6.02459928   12.61587221    0.43479730    -25.37364875   -0.28196884    3.31035583
    8    0.22396849   -2.72474460   -2.38508691     -1.70357786   22.78771326   46.99394813      0.42172264   -0.73870755   -0.71859362
    1   -0.70005833   -2.51633844   -2.39809135    -34.64915983  -10.70136733  -37.36917019     -2.16644082    1.75715602    8.63200222
    1    0.35305185   -2.30031263   -1.51046640     38.08557690  -13.05724815  -10.25845876     -1.60666833    6.88027953   10.12137207
    8   -0.19066790   -6.72859463   -1.70751200      1.87957025  -25.69028829    6.42928087      0.30700179   -0.69598748   -0.06782106
    1   -0.49058708   -6.61517925   -0.76533816      7.96882006   -7.14299228  -15.10562531     -3.43853602   11.18196815    0.28457044
    1   -0.00534465    6.24654068   -1.77586757     -7.87201800   34.79549633    8.07390969      0.98292306   -3.00338511   -6.33390562
    8    1.92272226    0.63572994    5.38883004      6.28366792   15.50338537  -13.74961896     -0.49730354   -0.16516104    3.04350986
    1    2.64003399    0.04710749    5.05074789     -9.05361994   -0.94833122   12.16799183     -7.98151487    8.46134963    6.14567711
    1    1.48185347    0.13161749    6.09049045      5.14308118  -12.11873468    3.67426099     11.98259919   10.42061724  -16.91217969
    8    6.39827266    3.65364270    4.85551791    -52.63864152   11.50818427    3.37299890      0.03372191   -0.32116856    1.92575030
    1   -6.79501081    3.36512052    5.28216889     43.89575168  -18.06227479   26.11417577    -13.04998381   11.27559426  -17.93739757
    1    6.71876357    3.83983213    3.98347241      9.37929514    6.74600770  -27.82820859      3.51163554   -7.14922335    2.78907864
    8    0.39663782    0.82942480    3.16384065     -4.09766661  -25.49719948   47.43623668     -0.48966711   -2.82959646    0.34510175
    1    0.88583123    1.40129727    2.58603115     17.36993328   21.79229858  -21.32841953     13.63392570   13.88188684  -11.03927394
    1    1.00652380    0.76025347    3.95905903    -16.49547838    1.65755119  -25.15213879     13.33540490   -0.50062659   10.64963718
    8    6.27289105    2.43440907    0.53091811     43.17882582  -44.36182407   62.42230936      1.19850109    1.00262131    0.05698300
    1   -6.98165928    1.89043633    0.06531230    -34.67966920   30.37881304   -9.10420420     -6.01604404    7.39576275    4.28588820
    1    5.78041983    2.91359527   -0.10408668     -8.74495036   13.57788650  -52.34577980     -2.55454507   -0.24594719   -7.59895048
    8   -0.35932663    0.99843415   -4.39277657    -13.94296614    5.66732073   17.26812674     -0.50049619    0.53504581   -0.42626507
    1   -0.24522131    0.54006321   -5.20880660     21.28634847  -16.45555971  -34.17315906      1.01224430    4.14435126    6.99411647
    1   -1.32799790    1.01424362   -4.38451780     -7.23976628    8.73923831   13.48726839     -0.40188185   -0.21007999    0.97478303
    8   -4.79115081    5.68414872   -0.24480125     10.52196581   -8.96363127   -3.27221715      0.95675749   -1.63872576   -0.70572885
    1   -5.69050793    5.75511562    0.09147696    -12.84582805   -0.92658320    6.80025664    -13.36605384    2.42658322    6.20491514
    1   -4.64823177    6.56357832   -0.61962455      2.62007279    9.95325306   -2.89671686     -8.81538907    3.28581188   -2.83411112
    8    0.99262229    6.26726905    2.38645327     -3.22294713    1.13120229  -61.33787876     -2.00555494    1.45156373    1.24023937
    1    1.43410085    5.61740397    1.79398736     -5.20945545   13.19298783   -4.91867636     11.18042171  -23.02253258    6.61334437
    1    1.16172798    5.87050958    3.19478987      6.18845972  -18.75469081   65.60211504     11.53344108  -14.53391815  -24.79808236
    8   -4.39777806   -3.69368184   -6.69634997     37.86447208  -30.68303777   62.74160940     -0.96316504    1.84670101   -1.31276713
    1   -4.80738657   -3.97517110    6.45579086    -11.00232334  -16.02009379  -22.39544022      3.49498477  -11.67589579   19.51717028
    1   -4.05033072   -4.56526680   -6.25299706    -22.32178356   49.04699101  -33.66434483     -2.74106451  -19.48374335  -10.92894983
    8   -5.80529873   -2.60050518   -4.68091955     20.14976897  -46.04945361   73.13548293      2.26041426    0.02182232   -0.82854505
    1   -6.31542149   -1.87112777   -4.98271479    -14.42619050   31.82425445  -41.31684339     -0.46543902    4.11130702   -2.65800898
    1   -5.29938315   -2.95565821   -5.41987637     -4.20620084   13.07618251  -28.46096465     -1.61834494    7.13248259    8.17294951
    8   -6.90401115   -0.55500550    1.58543466   -138.82373482    5.68734846  -48.26698951      1.58699954   -0.25605452    2.53480427
    1   -6.14422123   -0.70200566    1.14076499     90.92491119  -13.24610966  -22.80547797    -14.01727566    6.95907373   10.70139474
    1   -6.71484663   -0.45402823    2.45995066     44.03088209    8.02737350   74.60177959     -4.11851656   -1.72238445  -31.75191094
    8    3.82629422   -2.40780411   -6.97648270    -43.65411159  -30.66484978   57.04522924     -0.79714818    1.49750115   -1.50875699
    1    3.36741518   -3.01574715   -6.26044791     43.54658903   38.14127102  -52.04526936     -5.45380357  -16.28670345   14.62987844
    1    4.69043969   -2.81087495    6.83828723      5.15979609  -10.61741785    4.40664479      2.43265635   -8.03273552    0.04466661
    8   -5.12404155   -2.16396497   -2.07568675    -51.74666818  -19.50680968  -82.17025404      1.05007739    1.62179949    0.72986978