 BEGIN_INFO
   #
   # This is a XCRYSDEN-Structure-File
   # aimed for Visualization of Fermi Surface
   #
   # Case: Tight-binding calculation
   #
   # Launch as: xcrysden --xsf HICOLM.XSF
   #
 END_INFO
 # estrutura final
CRYSTAL
PRIMVEC
      14.82179830       0.00000000       0.00000000
       0.00000000      14.82179830       0.00000000
       0.00000000       0.00000000      14.82179830
PRIMCOORD
  300    1
    8   -2.66418301   -3.83662979   -2.72189305     24.79441429  -15.78191470  -14.31345536     -2.16900983   -3.84191127   -7.34813514
    1   -2.54843123   -4.16248370   -3.63166677    -15.47780879    5.25107409   -4.25965310      4.60275285    5.96103949   35.56145829
    1   -1.96543470   -4.37734808   -2.33061241     -7.57716990    3.55898584   21.78370679     11.07543105  -33.44181740  -13.59138410
    8    0.21283130    4.10401711    6.61433451     17.37209311  -36.07939143  -37.72852490     -1.89617371    2.03099279    0.75046310
    1   -0.07040991    4.38717230   -7.33533826    -10.92517083   34.42576554   -6.67830329     -7.17349314    0.79887964   11.53845311
    1    0.16308071    4.82905614    5.94265900     -8.07406117    1.18277249   43.98977865      8.75936360  -19.37871347  -11.58119563
    8    5.47584169    2.19609647    6.92077535    -23.16247209   10.71125148   -2.06773742      2.17779966    0.92036094   -2.90780803
    1    4.79026937    2.83377661    6.60909102     15.86840648  -16.70675208    5.97031267      6.22964441  -34.42748550   12.43458594
    1    6.22426676    2.76304135    7.12203322     10.65562208    4.58801401   -3.61521799      0.97927343    2.73113821    8.36099165
    8    4.07194378   -0.17666071   -6.80337223    -24.72253135   32.28007251   18.85557670     -0.01913456    1.41402451    4.80299202
    1    4.41055676    0.76247180   -6.87628298     -1.69542933  -36.54344748   -7.69781487      2.77338292  -18.67579693    2.62514900
    1    4.76614931   -0.74448264   -7.11588109     23.69149527    1.89149846   -7.09683971     16.12874523   33.13661812  -21.78288125
    8   -2.20712171   -5.54482815   -4.74194253    -16.21324827   56.80752285   13.62855719     -0.44359824    8.07187417   -0.22084062
    1   -1.46740810   -6.06757792   -5.05462635      0.61123105  -29.58011823   -9.56363141    -21.23717452   -4.77764283   14.53582132
    1   -2.99556206   -6.14839503   -4.66954820     27.31872525  -13.76157627  -11.83870427    -18.41146452  -10.16372275    7.98771708
    8   -7.10433719   -1.80999870   -0.82137544      9.65291410    7.77261542   26.64498114      5.05290048    3.80712306    3.23900568
    1    6.90776391   -1.88794052   -1.34040328     -4.65176538   -7.65841886  -15.04631024     33.28845695   27.09380987  -27.96618676
    1   -6.38921545   -2.12342055   -1.40015743     -5.99772557   -3.31781744  -10.15638808     -8.46452552   -1.42738740  -40.61005638
    8    2.37572909    2.20395060    6.86210854    -28.47880216   44.65966311   -5.36713937     -1.55860619   -5.14930027   -1.17099094
    1    1.93701084    3.10198531    6.83288139     20.59995532  -28.01449521   -9.35036571    -12.40665973   -0.29054244   -2.34258693
    1    1.78486773    1.75694181   -7.35963402      1.26654804  -17.68744495   10.02120158     -2.57294434   29.36691808    8.47073543
    8   -1.90428256    4.97179002   -6.05384858     16.49713499    4.73694564   25.02294615      5.75995065   -2.38635551   -1.11952292
    1   -2.30379119    4.12016160   -6.14351837    -26.44266079  -22.65103140  -28.79219157     -7.14667411    2.42784226   16.64050261
    1   -1.70904534    4.88757577   -5.11499006     11.59032528   21.55188930    8.17939516     -4.09033520   21.73639031    9.36250394
    8    7.01779894    3.56328436   -3.69276979     -1.86211510  -11.40479220   24.27898400      1.62647890    4.25319492   -5.01538723
    1   -7.08750672    3.96486504   -4.17737707     10.99428950    6.93168477  -12.30366310     -3.13719601   -8.74687777   -5.21771529
    1   -7.32548555    3.10029963   -2.96487200    -11.93294430    1.87576359  -12.53547921     13.36602896    9.63686341  -15.98760226
    8    6.02322390   -4.39481268    6.47593606     33.41005658    4.81302687  -17.45057500     -4.13500112    9.39968659   -7.74927776
    1    5.13040737   -4.44660744    6.81729085     -2.45123397  -21.90847282   10.57408254      6.05014193  -26.87116508    2.68737674
    1    6.54434684   -5.17435042    6.79987399    -25.07221352   11.39375627    4.05558388    -43.57510545   -0.97884869   17.88696033
    8    2.75514898   -5.07637897    2.72077929    -34.56313741    4.49627836  -16.14772788      6.05160559   -2.62252650    1.17512478
    1    3.01147861   -4.89291940    1.82279694     -1.93351542   -2.78960984  -13.99509370      5.24171595    4.60266980  -10.31019071
    1    3.58002675   -5.08949025    3.14592933     43.47723308   -1.94150816   25.77304686     -4.70442885   -1.87074850   -5.55179232
    8   -2.30705273    4.29302561    0.64910672    -24.53510728   14.18081618   13.14140311      3.71023151   -3.39176737    2.79346761
    1   -2.62175571    4.50207463    1.58044891     20.30370406  -15.04063920  -22.59632705     -7.53843864   14.30024397   13.27044473
    1   -1.54017466    3.70832913    0.73455065      4.14473401   -6.82823687   13.75840848     27.79617202  -10.08718343  -18.65509486
    8    3.79913617    0.95811208   -2.41829068     26.49159723   16.63564319  -30.73462749     -1.21431947   -6.91123182   -3.45729728
    1    3.60101260    0.84350361   -1.51386145     -0.40250190   -2.68000268   40.89424468     48.34982690   34.86282071   23.27168911
    1    2.97449115    0.75627254   -2.83138462    -26.64234774   -9.56162443  -11.88133494     19.46121458   -5.70510603  -52.20868086
    8   -7.22945725   -1.42624104   -5.11103841    -35.54777866   11.25759461  -19.65293819      1.11382098    3.33915700    2.83589167
    1    7.01680596   -1.42653438   -5.93633654     25.16908052  -11.16245420   16.39168356     -5.13146978    6.98448692    8.91152884
    1    6.98556731   -0.94512235   -4.50751825      7.40249004   -2.36668221    5.06503509    -15.65232305  -11.16662993    0.17650069
    8    4.19601435   -4.73623433   -5.58267709      0.41965785   12.77139799   -1.20164574     -3.85292047   -0.61939489   -6.01221539
    1    4.38043705   -5.22242003   -4.77993524      4.21060979  -13.64761603    5.62948299     -3.14217203    5.02836126   -7.99556938
    1    4.34801405   -3.83189894   -5.27326436     -4.38879765    5.57468124   -3.60241849     -0.66044890  -24.57401244    2.26930232
    8   -0.23463368   -6.96615872   -5.98559510     11.01536019  -30.66286167   38.45971819      1.33504382    3.04580294   -0.87815366
    1    0.25620288    7.31137241   -5.29953188    -21.35774052   17.16589859  -22.63040669     38.27656838   -5.06093207    2.52609337
    1    0.48852582   -6.56193200   -6.46265665     17.16379907   11.56048919   -9.17527782     10.59145508   -4.24811205   -2.31379458
    8   -4.26068260   -5.80900903    6.70972776     13.87152312  -28.11697383    8.66831979     -4.76842260    1.45525700   -3.07976635
    1   -3.53355100   -6.41814699    6.96881551    -17.58201744   -0.61402655    2.40638276      9.23678564   20.15232052   -3.75649336
    1   -3.75087815   -5.15066477    6.26737119      5.84882561   26.64990714  -14.56945592     20.46367197   -4.82412576   -2.32804530
    8    3.73438476   -2.10895850   -4.64117725     75.25499864  -15.23143946    6.28598990     -2.97667465    0.42369322    3.72573115
    1    2.81895108   -2.26981941   -4.54442527    -48.91525704   11.34882774   -5.97174102     -9.12108300   15.36774918  -11.52709790
    1    3.86608553   -1.37289891   -5.25921528    -23.32478177    5.42309678   -1.19018370    -11.39135514  -26.72778018   -8.05116706
    8    0.20101613   -3.10355679    5.10068986     22.28589387  -30.33296556   34.27651368     -2.15005969    0.51606097    0.56681906
    1    0.69242358   -2.75104453    5.87044891    -12.31342428   22.91083077  -10.36182971    -20.19599399  -22.56141584   24.29916881
    1    0.48562432   -4.04206837    5.22337740    -10.43749889    8.44652170  -23.03275106      3.08045920   19.48751514  -12.04117019
    8   -1.33792536    4.52423530   -3.13522838     -5.79695415  -36.39587641   29.45395016      0.91338268   -1.99913863    0.19465049
    1   -1.42977486    3.62302290   -2.73089073     11.66507132    9.69585672  -28.83744460    -20.51840634   -7.94456194   18.45238716
    1   -1.66070599    5.01145019   -2.37274307     -4.69850334   29.11463026   -4.30042499     -1.81217106   -8.98923494   23.43520565
    8    2.94594217   -3.40659834   -1.27136600     -1.30054416   18.74795891   -5.74161933      2.60006294   -8.61826805    6.96371262
    1    2.17918150   -3.81174506   -1.71402267      7.36050932   -5.52522842    6.50654890    -10.51027978   22.38244879  -16.01659394
    1    3.47746458   -4.16302291   -0.97963914     -7.68964086  -12.98938890    2.35024883     10.75234862    8.58060009    1.89811262
    8    3.75795025   -5.80309841   -0.41471735    -13.07229822  -21.85003410  -26.40626012      3.07555536   -9.26714948   -3.64196048
    1    3.45905643   -6.51885370   -1.01695477     -5.53751223   20.02880876    0.94140224      4.73968304   -0.90046518  -23.74487766
    1    4.34698824   -6.31793190    0.13361733     17.73000772    2.53143929   23.53082415      9.91579384    8.37522162   11.89719164
    8   -5.81401102   -6.75590235    4.13096444      1.34669994  -29.60559470  -15.12007567     -2.27492812    3.86026886   -1.91109690
    1   -5.66152503   -5.84432650    3.88315897     -0.55865418   21.93872071    6.72863862      9.35094674    6.29292136   41.25330660
    1   -5.51534426   -6.81321161    5.03284761      4.23548413    8.21375019   15.86186330     -5.50127509   21.03422311  -26.49358238
    8    6.13042651    0.25615114   -3.59068193     -4.02972872  -25.95531264  -22.43989619      2.87567217   -1.89215767   -1.21757468
    1    6.79038238    0.85830055   -3.25511856     -4.42968945   18.02590726   15.91200835    -11.34098658   -6.59927727   16.31548932
    1    5.25586563    0.57792453   -3.28230394     12.45132827    5.08307859   10.19042220      9.58435579   -9.68216395  -20.08818701
    8   -4.11136023    2.49487162    5.89390379     11.02318287  -11.30624934  -31.10539458     -1.22531584   -4.39488359    0.14085367
    1   -4.58172374    1.96404510    5.20035525     21.14169382   14.92684413   20.17063744     13.96949722  -11.22084244    7.38846056
    1   -3.16487818    2.56078596    5.56182321    -32.60919324   -5.11209192    5.98380198    -14.92123611  -17.40733478  -11.29438818
    8   -0.75464571   -3.41702991   -5.74790087     16.24703443  -10.18760775    9.76147597     -7.64013619    3.27428390    2.88929756
    1   -1.42722613   -2.86898688   -6.13169932    -13.87035355   25.91338174  -19.24624419      2.89681268   42.81746820  -10.29007556
    1   -1.30575813   -4.13543147   -5.43968216      1.05449546  -23.47143453    9.08092842     32.41038449  -17.27406815   -8.19687976
    8    0.78846840    1.42151462   -5.29275940    -24.39389128   17.19868959  -35.94111019      4.18353989    2.26438256    2.54361250
    1    1.07814668    0.93442178   -4.51048586     -9.95617092   -9.27642586    9.89073470     -4.98074071   -8.64028112    1.16460821
    1   -0.15218585    1.10127828   -5.46661218     41.18092162   -0.62517643   17.92957610     11.19133636   13.83065894   -5.81229988
    8   -0.34010118    1.04705073    2.89535313     14.70363089   28.96436738   30.81868933      1.53928333   -1.23272751    0.18270181
    1    0.30888463    0.60964113    3.49984537     -9.67196495   -2.34039513  -19.63925271     20.45183372  -29.67580184  -25.08336841
    1   -0.57583850    0.38983846    2.23437788     -2.63607563  -26.89730257   -3.04142599     -5.40599429   -8.89438501   16.75564958
    8   -2.04762331    7.12920117    7.04695392     23.62203704   52.04591783  -11.71773685      0.10761623   -0.76071164   -3.31688207
    1   -2.36683055    6.33667291    7.40478168     -9.42118028  -42.49902920   23.75267656      6.61332180   18.09652216  -17.98811598
    1   -1.34752356    7.40006700   -7.10892050    -18.17839561   -7.02807224  -13.66610632     21.23341044    4.22357014  -15.12486694
    8    1.13490077    0.05993132   -3.01210005     24.16817109   27.40670256   -9.05264655     -4.30927389   -0.12539636   -0.72208535
    1    1.09026658   -0.86457831   -3.27650427     -7.95497731  -13.28062025    3.55188952      3.31713139   14.35188862    7.90585624
    1    0.53515020    0.14347161   -2.26066215     -2.81983013  -20.62838369    1.20330754     11.47575837  -15.80210843   -3.04504026
    8    7.05690317   -2.84126470    1.74602058     31.60824139   -4.61571210  -12.30616497     -9.04418631    2.79063681    1.33897683
    1   -7.31331910   -2.48817398    0.94187102    -10.99222559   -6.87686214   12.06333899     21.20994878  -10.41862470    8.36126324
    1    6.18890616   -2.46237157    1.66725942    -16.83699692   11.44065205    3.37628452    -23.15066933   11.76732135    2.75751045
    8    2.53844402    6.11502749    7.11303744     10.64614937  -34.05106723    3.83626842      0.97292762   -4.24580735   -8.40202023
    1    2.56681608    5.55861675   -6.91244813     -2.58087032  -17.09170230   -7.50930161    -18.50324203    8.22206596    5.57063130
    1    2.50517775    6.95044613   -7.30029941     -2.90568816   51.16354102    7.53426199    -19.49306867  -12.94841062   15.62189644
    8    1.21958039    6.62212708    4.90077808     -9.99649550    2.18612619   -8.86485837      5.06362341   -5.21717857   -2.94822387
    1    1.70929125    6.39926708    5.72336695      5.67908439   -5.31022196   -5.02674339      9.59125110    7.84928474   13.03930366
    1    1.62417557    6.05537467    4.20858301      2.26944682   -1.17097428    8.13382094     -2.07096611   46.06737298  -20.78541629
    8    6.27369488   -1.77782907   -7.31632736     -6.22237201   -9.73109277    7.90807601      9.31075402    1.59953650   -1.44655171
    1    6.37307846   -2.60777315    7.01813776      0.10185085  -10.13154121    0.11225459     -6.06114045  -27.21014423    7.61720170
    1    6.30950053   -1.13350485    6.79958880      2.88485092   15.68581177  -19.14949800    -13.30398878   17.27665053    4.66751713
    8    4.45929734    1.02378133    0.44764615     44.48130653    5.52109432   16.18459117     -2.78973814    1.84064294   -6.26365259
    1    4.45753531    0.14818716    0.84051292    -16.60901721  -15.26073018    3.48438196      9.09549799  -18.02142562   17.89577902
    1    5.42133814    1.24025013    0.60942026    -29.17230235    6.71674243  -13.81532686      4.27633162   -2.06951522   -3.37842304
    8   -1.46723565    6.94580920    4.39979048    -21.97967644    3.86081551  -30.72393469      5.44602259    2.29254406   -3.65959906
    1   -0.52365398    6.97874103    4.54652788     20.70168183   -1.39786291   10.93243021     13.01570869    0.99348903    2.01992595
    1   -1.84681329    7.06015882    5.27789869      3.89026556    3.55935852   18.03281772     -3.65556009  -20.25549135   -9.91205237
    8   -3.71756527    7.24315674   -4.78607420    -17.42607964  -25.32672322   17.34788335      3.89767743    1.29842118    0.39324186
    1   -3.62981420    6.49969500   -5.38440198      4.05750158    1.58706340   -8.02344164     -6.68266250   53.71360189   -9.33298263
    1   -4.05712553    6.79500534   -3.98437701      0.23349268   12.47816174   -4.11822392     -3.88458679   25.25456208   26.28153671
    8   -4.80392444    3.43532648   -0.99388564    -15.60390483   24.81026162   20.36597420     -5.38394154    4.20026200    0.73510502
    1   -5.23905320    4.23169555   -0.52323724     28.87458198  -34.20354534  -20.08647780     10.33704946    1.65948784   39.15407265
    1   -3.91648205    3.37981941   -0.59742021     -8.22113468    5.71882352    0.04203865      6.34161433   -6.73631172   -7.09896784
    8   -0.07995540    2.64845808    0.74834367     14.30744807  -17.66366061   27.42924772     -4.70531883   -5.19762179   -3.27594711
    1    0.89343901    2.80797548    0.88497440    -25.99818822   -7.94253184   -3.48383599      7.93671530    8.86424441   19.43047326
    1   -0.27419971    2.00875060    1.50877310      6.65160217   26.64081001  -26.96214408    -20.55887401   28.69517156   -1.45811527
    8    4.88376412    6.08913364   -2.44217335    -45.68464120   -3.28807513  -15.64206765      0.87272154    1.70902686    1.12564508
    1    4.81067999    5.25544971   -2.87533697     33.74229149  -31.30211217   -6.24891372    -41.49932546    0.91608001  -11.03607328
    1    3.93781841    6.29238833   -2.59106111     13.05975683   34.05972684   24.77961711     12.34056686    5.66523701  -31.87291041
    8   -5.79512096   -4.04213200    3.53003817     -0.19453610    0.01075994    6.84173407      4.81121494   -1.67161624   -6.31377284
    1   -6.38919761   -3.59647827    2.95977059    -22.41998133    3.30741168  -44.26933731      3.90301481    9.71323855    5.69512568
    1   -5.94850848   -3.46785144    4.28975989     18.71328684   -6.43268383   26.59572820     -0.65834742    0.96408154   -5.51878418
    8   -5.61620792    5.25870401    3.46189848     18.29352444    4.06628576   -6.94655769     -0.16337675   -0.35635647   -1.79156663
    1   -5.57820086    6.21240641    3.70245130      2.22488413  -18.89063630   -3.96647754     -8.31077181   10.54611770    4.63996412
    1   -4.68362773    5.01299570    3.19939519    -25.62504004   14.05819138   13.49708739    -16.64068073  -18.12554940  -22.43243126
    8    2.26085651    2.36210774    2.08772060     30.73018392  -17.91391457    2.42359331      1.66154744    0.99619722   -4.77631611
    1    3.13820823    2.06577534    1.71997962    -26.97656014    6.53215486    5.88949605    -15.79763890    3.47013370   12.97315692
    1    2.16415552    1.79751102    2.88804625      0.36177188    5.50347224  -12.63823481      7.81687526   13.89170943   -5.28952700
    8    4.24413120    3.61068197   -3.80132852     74.41825518  -27.98328402   16.86940094     -1.47129998    5.16097756    1.77313495
    1    5.24178934    3.56477093   -3.77376855    -17.99340223   41.90931130  -28.25980378     -0.49037958   -9.66369763   15.15011828
    1    4.21826712    2.78168231   -3.33489759    -53.88291583  -17.46967178    9.66476603     14.77963899  -39.17195404   -1.63772164
    8   -5.66946636    4.80801599   -5.29801560     18.60835515    3.74892869   28.65806171      1.14283765   -2.03648684    4.81010132
    1   -6.16765376    4.72902491   -6.08789016    -16.28373537   -1.00079161  -27.55992275      4.86098709    2.26230543   -9.69866663
    1   -4.79608470    4.45075654   -5.56550977     -8.94867723   -5.93104368    3.53754731     11.51392256   -8.92650751   29.02268983
    8    0.62992519    6.24556441    0.85515761     -9.30602854   -5.53323718    2.38647309     -1.49312160   -4.09060323    7.42252049
    1    0.15841992    6.98599980    1.23139827      7.76195870   26.98397352    5.42478881     16.64776946   -6.04374453   -7.91488296
    1   -0.11912618    5.66901323    0.75011406      0.89267738  -20.49312743  -11.06240412     13.46343125  -36.52630265  -12.23392578
    8   -6.64762915    1.73278664   -1.91508511     37.47407231    0.90672891    3.74813901     -7.08450981    2.50565059   -0.74755138
    1   -5.94547599    2.35392827   -1.60073424    -14.41710224    7.07280603    1.89610219      3.41401295   -2.03603381  -17.64546916
    1   -6.06340641    0.96894014   -2.10934651    -23.41321303   -1.09160389   -7.79700134     34.48155078   35.37964140   -0.40563553
    8    1.54268769   -5.48891360    5.07767037    -10.17763851   12.22043864   23.31032444      3.52203434   -3.70221630   -2.34236921
    1    1.39503003   -6.42503779    5.00413547     -7.12050083  -26.53173852    3.97943593     -2.00472607    3.97762195  -16.24149494
    1    1.93676965   -5.31083596    4.22938928     12.89245274   13.04397380  -23.54332957    -16.38661961   14.82251968   16.57113595
    8    5.28234385   -7.22047895    1.25941335     16.35187005   22.53653535  -10.16476520     -1.41276384    0.90042083   -5.61774251
    1    5.61462381   -6.86754622    2.09950898     -1.11862686   -0.15197648   -1.79737317    -26.73996704   25.34157801    8.82476676
    1    4.74071682    6.88432033    1.53054937    -12.07394498  -26.21842140   14.16688291     -7.76398727  -32.79267266   -1.82530610
    8    1.08181981   -2.60676826   -4.08572101      3.30656236   -2.67305918   16.95471460     -2.18788665   -9.15507843    1.93834609
    1    0.31236028   -2.88439146   -4.64212153      8.49123163   -2.90576941    8.01616718    -16.09005508    5.44428103   -9.74881921
    1    1.09369251   -3.25190243   -3.34291613     -6.26525151    5.46393192  -19.41985604     14.98096167   -9.11545792   18.83549414
    8   -2.57881757   -3.81426431    5.27607218    -15.25993839   10.62291284   58.18688645     -2.01565326    1.19673345    2.17154225
    1   -1.66125868   -3.41530021    5.33644040    -21.89668911  -20.46164672  -43.95244196      9.89055192   13.23861400  -21.68258727
    1   -2.82721675   -4.04921555    4.36963045     37.27802883   12.06946066  -17.97943948     11.51540060    6.72505026  -10.49560440
    8    3.40483614   -3.07446361    6.65837446      4.14853930   18.25404338   22.24270325      6.82269928    3.70135996    0.19954698
    1    4.01221610   -3.16225050   -7.39997912    -16.74828372    4.23529155  -12.27379885    -13.01297601  -33.73333539   -8.82123283
    1    2.68686307   -2.46816855    7.00167467     13.25763242  -21.84427236   -8.08519517      6.21416725   -0.91612160   13.08917326
    8    5.76790522   -5.22845942   -3.12597462      4.78499220  -22.65751745   26.94698781     -2.79130597   -1.52251783    1.19064793
    1    5.53357874   -4.36346718   -2.78689761      0.10775634   17.17407803   -0.43019170      9.16690024  -15.80010063    7.72810557
    1    5.99265442   -5.70561927   -2.28038547     -8.72172077    2.97126773  -29.54830007      2.97741007   15.22676083   15.98762975
    8    4.49580222   -1.46460974    1.82907116     -4.85965169   -1.10176643   21.18234327      0.08616794   -3.09827185    0.10030785
    1    4.16357756   -2.22638227    1.34757071     -8.38010136   -0.17588892    5.54125110    -18.91413607   30.14394746    4.49611613
    1    4.12993621   -1.56172513    2.76783153     13.84577012    1.81624614  -31.97116740    -18.53932375   -6.65688311   -6.34443556
    8   -2.57284484   -2.09477499   -7.04808926    -12.16579568  -14.74137085  -27.35065214      5.58107669   -3.41109634    6.01092284
    1   -3.45289705   -2.44274030   -6.84423173     -9.57877599    7.26974898   14.41995799     11.44797294  -20.94081794   18.07927415
    1   -2.47747332   -2.44648963    6.86608724      9.04979402   11.21911947   10.89793911    -16.44916766   -2.68834808   -8.09407173
    8   -5.04116700   -2.76610865   -2.34071456    -29.27671430  -69.15341906  -10.04136578      3.75372055    5.91410309    2.94153004
    1   -5.61561895   -3.61197221   -2.40310720     15.55243376   49.30820920   10.11947097     37.41420472   -4.93217381  -15.77560802
    1   -4.18874687   -3.19456683   -2.58586342      9.27521781   21.99030485    7.11398513    -28.29749893  -33.08230137  -12.30685925
    8   -6.16233955   -5.26581699   -2.13678249    -38.99593131   -1.17452719    2.08956577      4.07860356    1.87178177   -1.69772241
    1   -5.46948969   -5.92703199   -2.06932051     -6.75529347  -14.32566397    8.55531366    -30.01797330   34.75118590   35.01048180
    1   -7.03125121   -5.73243515   -1.88250739     53.74040410    8.78485728   -5.52701079     -0.34820695    5.15539016   13.32140379
    8    2.11121810    4.91256046    2.88365789    -31.92688744  -29.16607908  -64.57371698     -0.68412692    1.33021420    4.68110826
    1    1.84402115    3.99692935    2.54847614     26.37198624   21.91839898   38.90322910    -11.69855369   12.34377481   -8.07924472
    1    1.85465171    5.38582727    2.05390331      8.13257991   15.51530821   26.77647774    -11.07982938   21.24801100  -12.61151472
    8    7.13341373    4.09402234    1.73600083     12.61177924   10.22071839   22.51957757      0.60403315   -4.07991740    1.31503590
    1   -7.20654360    4.39637087    2.53054563     17.90721211   -8.97710655  -12.63907531     -2.78844096   -8.09600387   -4.00157279
    1    6.27489616    4.42347301    1.99212114    -26.90451452    1.42623873   -8.01457425    -27.74280040    5.38399737   -8.26054455
    8   -3.50733595   -2.00555747    0.54030987     33.71333325  -24.27255028   14.16834886      2.18754363    0.55265456   -1.26881077
    1   -3.85450554   -2.40232947   -0.23996528     -9.08877648   -8.17323478  -23.84044313     19.94008752  -22.00471664  -11.21645313
    1   -4.17981832   -1.39290293    0.77627226    -29.19315381   30.24677024    8.13621352     22.18656057   20.22638900   31.09665586
    8   -5.26330706    6.13185114   -2.55814674     39.52660343   33.33911979   28.93838933     -1.47988849   -3.98797638    6.87045772
    1   -5.71107849    5.76660495   -3.29195048    -28.02806636  -26.42272729  -14.04846783     -6.45025474  -22.81411033    4.09120527
    1   -5.65051107    5.76286876   -1.72616362     -4.93678520    1.02054931  -22.55474513      3.56813628    7.86304653  -10.13432182
    8   -1.17933123   -0.93664375    1.36073540      3.60276058   19.34328788   -0.32841706      1.19060800    0.27346951    5.41404165
    1   -0.60858256   -1.57502808    1.82201584      2.15327794  -14.42465681   -1.34728484    -14.04677197    6.24625897    4.70866496
    1   -1.99824123   -1.42708878    1.19461589     -6.39141746   -6.17239460    0.51056406     -0.26738265   -3.46063365   17.88909627
    8    6.61110538   -7.09321037   -1.21871428    -25.99652424   -9.97239648   30.62968153     -0.41620027   -3.23021014    0.28935030
    1    6.09271975    7.07100077   -1.68026813      2.33737311  -10.38840761  -46.27855369      3.31244665   30.32355652    2.09334698
    1    6.18290145   -7.30494270   -0.36570675     27.06686341   28.69750504   14.28505669      2.55017266    6.10840153    8.08676751
    8    7.20279356    1.55632325    0.70569988     -2.38075666   66.52432116   -0.10840518     -1.65639310    2.39866349    2.99817825
    1    7.23135179    2.45948610    1.16673941     -3.07127615  -38.79468408   -7.25290726     -8.06859561    2.70081242    3.81470306
    1    7.31390364    1.85188736   -0.22687296      0.93510966  -20.82078113    7.98666950     12.25995298    4.77284714   24.65242973
    8    6.08382418   -0.03179359    5.45318078    -21.31968782  -48.03729334   -9.14131204      6.69216969    1.36050255   -0.91231647
    1    6.82110209   -0.00887417    4.82375763     11.73270300   16.80455701    4.69972718      7.11696909   19.05314556   18.53426625
    1    6.09204799    0.78682726    5.93148072      9.09304133   34.95172685    4.95260849     -5.47543555   35.31097701   -3.48438594
    8   -6.90317315   -6.30358031   -7.36065160      3.22646436   11.72020120   -6.12071526     -2.90754770    4.75969393   -1.28049411
    1   -5.99120438   -6.01545269    7.21573642     -8.46486112   -2.49243557   10.08022668      1.60560103   -4.73601267   22.38246710
    1   -7.00438014   -6.01366069   -6.42197576     12.46637735    0.68129256   -6.58978446     18.64460949   -6.96729734   22.00955182
    8    5.53423406   -5.13495028    3.60440594      6.45334919   -7.58526086   23.67651955      1.82222257   -7.15248195   -6.03378229
    1    6.25591563   -4.59905065    3.31954316      8.48029956   14.90929011  -25.07218196    -11.34890526  -21.88999188   20.82379822
    1    5.79564872   -5.22758118    4.53627748    -18.17371278   -5.45965280   -1.57935990     -3.76973577   -1.50086451   10.66937965
    8    0.93970895   -5.07443698   -2.34197344      0.39020803   61.82791081   -8.92319981      3.54278431    2.16509011    1.37931855
    1    0.15386891   -5.13205033   -1.73746109     21.55234114  -37.71764847  -13.53545788      1.81180812   32.91816619  -27.14119557
    1    1.39111976   -5.91565162   -2.41435523    -17.99310159  -21.86070619   17.96895629      1.17943887    1.61472884  -47.48310169
    8    3.96201748   -1.43963085    4.47668997      0.08527783  -25.03396664   63.03140995     -5.70136863    0.72098031   -1.63221871
    1    4.58472553   -0.73061172    4.79018382     -5.90051533  -19.93279100   -4.50960654     14.57025051    6.96055859   -4.73618436
    1    3.87050948   -2.05779137    5.30587545      4.90947869   37.24395177  -57.61855038    -14.28576543    0.05097686   -9.78179813
    8   -1.22411292   -0.37435372   -5.29345936    -32.84411856   -3.85392470   19.41139171     -2.95820791   -3.72317814    2.39285145
    1   -1.91707654   -0.29434432   -4.58252236     25.06817321    0.64682284  -29.46766469    -13.16194868  -29.98247529   -8.85071670
    1   -1.68418450   -0.88068658   -5.99284722      2.06024196    5.67110501    3.94145288    -29.44760213  -20.85765120    4.30377367
    8   -3.41121164    1.36477633   -4.27923671      7.52406280  -17.43566742   67.76490839     -0.39489176   -4.53490832   10.98167326
    1   -2.88357813    1.65540011   -3.48721431    -10.33018081   -0.11760704  -33.93627778     -1.28783206    4.37665140   14.50212165
    1   -4.06835880    0.76849654   -3.81966548      4.21715210   12.83082111  -29.84616157      7.44291209   -0.60596439    6.93298678
    8    0.92735719    5.93388667   -4.08436273    -22.20922045    4.14988950   10.00584723     -6.84966291    2.15942815   -2.70553143
    1    0.08277325    5.52588700   -3.71436506     33.29551580   -2.76978177  -23.94797633    -15.60796486   22.54736159    5.17859414
    1    1.32626333    5.28016504   -4.71316925    -15.30495696   -1.72654189   13.47737943      3.22049610    4.09058933    9.42039256
    8    5.44502508   -2.61433391   -2.21791794     38.42730121   -8.81590877    2.93359201     -2.41733957   -4.40714260    1.63487957