 BEGIN_INFO
   #
   # This is a XCRYSDEN-Structure-File
   # aimed for Visualization of Fermi Surface
   #
   # Case: Tight-binding calculation
   #
   # Launch as: xcrysden --xsf HICOLM.XSF
   #
 END_INFO
 # estrutura final
CRYSTAL
PRIMVEC
      14.00000000       0.00000000       0.00000000
       0.00000000      14.00000000       0.00000000
       0.00000000       0.00000000      14.00000000
PRIMCOORD
  300    1
    8    5.29770100   -1.77702200    5.92931800  **************20206.9641780220257.34976250     -0.00000884    0.00000053    0.00000053
    1    4.72481900   -0.96561300    5.81360300    -11.31659762  -74.62390192   75.78442547     -0.00000000   -0.00000003    0.00000003
    1    5.30418400   -2.57249000    6.53525100    -84.58582386   66.16103133   10.57965432     -0.00000004    0.00000003    0.00000000
    8   -3.44016200    6.18868000    1.44127900    609.26423742-5815.27992282 1003.77797617      0.00000002   -0.00000015    0.00000003
    1   -3.06215800    5.31090300    1.14701900     89.78980767  107.72810505   19.15747793      0.00000004    0.00000004    0.00000001
    1   -3.07377900   -6.90574400    1.65496600     52.12474682  -29.52107872  -76.45353752      0.00000002   -0.00000001   -0.00000003
    8   -6.61357800    6.12906500   -2.63525100  -9757.3598528917790.24450849 5657.69267015     -0.00000026    0.00000047    0.00000015
    1   -6.88493100    6.52042100   -3.51455500     97.10233748    6.21106798   17.49287980      0.00000004    0.00000000    0.00000001
    1   -5.80939700    5.65539200   -2.27623200     48.54097064  -21.34040404 -157.01941202      0.00000002   -0.00000001   -0.00000007
    8    1.80388400   -4.92755900   -3.23278600  -1194.68002265-1241.97381372 1541.02242393     -0.00000003   -0.00000003    0.00000004
    1    2.59076300   -5.49458200   -2.98932500    -74.48631856  -52.06621085  -56.47711032     -0.00000003   -0.00000002   -0.00000002
    1    0.94134200   -5.06508400   -3.71968800     80.28321388 -108.21529113   17.28993172      0.00000003   -0.00000004    0.00000001
    8    2.49917300   -3.01093500    1.01028500  ****************************52155.95524905     -0.00000663    0.00000278    0.00000136
    1    3.16971700   -2.48908700    1.53755300    -31.09721175   30.74534930  -99.53092166     -0.00000001    0.00000001   -0.00000004
    1    1.93519300   -2.84687100    0.20097900    -71.19648028   32.70943258   32.02674277     -0.00000003    0.00000001    0.00000001
    8    5.33362600    1.39499800   -2.05920700    191.59528261 -241.60631971  418.25220429      0.00000001   -0.00000001    0.00000001
    1    5.05140600    0.80184400   -2.81318700     34.98634181   67.89905039    8.67623805      0.00000001    0.00000003    0.00000000
    1    5.25147900    2.36700500   -1.83916000    -54.44819090   -9.46361672 -112.90126329     -0.00000002   -0.00000000   -0.00000005
    8    3.42218600    3.50983100   -6.68454500  -9383.72947252-7121.2259630716035.72284458     -0.00000025   -0.00000019    0.00000042
    1    2.95992300    2.62368700   -6.65246400    -87.59265938   95.03537955   40.38599668     -0.00000004    0.00000004    0.00000002
    1    3.15494300    4.46542600   -6.56050900    -76.82627718  -74.93529714   20.48428486     -0.00000003   -0.00000003    0.00000001
    8   -1.43781000    4.96688500   -4.78193100  -7858.13584255-4564.59785816-3561.84740460     -0.00000021   -0.00000012   -0.00000009
    1   -1.95528600    5.82019300   -4.84556700    -62.97822350  -91.50192963   73.07670512     -0.00000003   -0.00000004    0.00000003
    1   -1.50322900    4.12412700   -4.24766100    -83.48625605   83.96319275   37.20247390     -0.00000003    0.00000003    0.00000002
    8    5.36081500   -3.70160300    2.31282600    287.73987258   22.33033039  156.61894545      0.00000001    0.00000000    0.00000000
    1    4.74398500   -2.97829000    2.62315800    -52.45184046  -83.69798767  -79.91841006     -0.00000002   -0.00000003   -0.00000003
    1    5.28223100   -4.51694500    1.73923400   -110.06455094   61.50232957    5.82948260     -0.00000005    0.00000003    0.00000000
    8    1.46984700   -3.34113900   -0.21641900  **************-3635.73865580-1047.25848126     -0.00000034   -0.00000010   -0.00000003
    1    0.53339500   -2.99052300   -0.20673600     72.22684196   90.43997071  -40.01212293      0.00000003    0.00000004   -0.00000002
    1    2.37389700   -2.97205500   -0.43191400     76.15496633  361.16745621  -31.21830741      0.00000003    0.00000015   -0.00000001
    8   -0.10954700    5.87908400    1.40895300   1566.26530916****************************      0.00000004   -0.00000270   -0.00000182
    1   -0.82769900    5.18332900    1.42113500     60.19319001   11.31097690   93.49007399      0.00000002    0.00000000    0.00000004
    1    0.56676800    6.22618400    2.05863500    201.47254753  123.12303706 -125.73660035      0.00000008    0.00000005   -0.00000005
    8    0.36437100   -2.25838300   -2.36123800    430.21604465-8029.58272160 4514.40470971      0.00000001   -0.00000021    0.00000012
    1   -0.01058800   -1.33135900   -2.36198400    -44.23915913  -21.39539140  -30.40542852     -0.00000002   -0.00000001   -0.00000001
    1   -0.00991200   -3.18566900   -2.35700400    -76.61481782   78.36018380   11.11705360     -0.00000003    0.00000003    0.00000000
    8    0.01209900    1.70618900   -6.93877900  -4038.74077033 5399.29473285-1438.91927967     -0.00000011    0.00000014   -0.00000004
    1    0.95378100    1.42895400    6.87058400    -59.79745310   -8.70953129  -58.93629552     -0.00000002   -0.00000000   -0.00000002
    1   -0.75993200    2.04713600    6.52485300     91.46265174  -64.76389701  -74.31429882      0.00000004   -0.00000003   -0.00000003
    8   -3.54330900    0.77092700    2.22248100      0.66707501   89.09604230  -87.26706909      0.00000000    0.00000000   -0.00000000
    1   -4.41821700    0.28962700    2.16907200     88.02736495  -53.61440536   70.10412850      0.00000004   -0.00000002    0.00000003
    1   -2.63467400    0.57286700    2.59007000    -68.02374674  -86.52142625   28.82172673     -0.00000003   -0.00000004    0.00000001
    8    1.17040800   -0.00670300   -0.97988400  -1149.13478338-4373.27810702-2463.74372931     -0.00000003   -0.00000011   -0.00000006
    1    0.19884200    0.06786000   -0.75523800     67.04101436  109.45589219  -33.72292527      0.00000003    0.00000005   -0.00000001
    1    1.90137800    0.62781200   -1.23096400   -110.52367204   76.45119276   35.00365976     -0.00000005    0.00000003    0.00000001
    8   -3.41819000    4.96430700   -3.53691500    221.45105257  -78.89434854  111.14152048      0.00000001   -0.00000000    0.00000000
    1   -3.51258800    5.95976700   -3.54769400   -107.52072265  -65.88932102  -44.92087014     -0.00000004   -0.00000003   -0.00000002
    1   -3.97884000    4.18553600   -3.81825800    -60.62055121  120.16657974  -27.48213901     -0.00000003    0.00000005   -0.00000001
    8    6.55563400   -1.85223000    5.85808000  ******************************************      0.00000791   -0.00000089    0.00001052
    1    6.23755200   -1.12560800    6.46702300     97.10605149  -38.17410159  -55.59371391      0.00000004   -0.00000002   -0.00000002
    1   -6.57358200   -2.11020200    5.43956700    -33.65549537  130.39622851   33.00459155     -0.00000001    0.00000005    0.00000001
    8   -5.98608800   -4.89560300   -5.86951100   -271.08352109 -115.23709173  340.82856814     -0.00000001   -0.00000000    0.00000001
    1   -5.45229200   -5.73885800   -5.93236700    -67.50471850   35.99081696 -103.28045279     -0.00000003    0.00000001   -0.00000004
    1   -6.55601400   -4.35713500   -6.49015800     57.02757326 -106.26934359  -46.69507522      0.00000002   -0.00000004   -0.00000002
    8    1.94228000    4.94036400    3.43540500  ******************************************     -2.27459976    2.48208187   -1.96454722
    1    2.25284000    5.67206500    4.04214500     12.80971489 -169.36631420   33.88474942      0.00000001   -0.00000007    0.00000001
    1    1.95385000    3.94055000    3.44973300    179.54364501  149.07326982  184.63614046      0.00000007    0.00000006    0.00000008
    8    6.02961000    5.18926000   -3.16197300  -4144.35971600-2923.76717284-1603.43741476     -0.00000011   -0.00000008   -0.00000004
    1    6.60288700    5.31909000   -3.97096300   -115.69472794  -50.22777627  -38.41427007     -0.00000005   -0.00000002   -0.00000002
    1    5.10028700    4.86616500   -2.98326700     -2.46090885   31.01325690 -114.56052739     -0.00000000    0.00000001   -0.00000005
    8   -5.60405000    6.36032500    6.57998200   6467.53544632  419.12285743 6089.31831954      0.00000017    0.00000001    0.00000016
    1   -6.13470300    5.51636400    6.65811100    130.14717497    0.48444511   13.80894301      0.00000005    0.00000000    0.00000001
    1   -4.63603800    6.59598400    6.49405500    -44.89483566 -133.89847918   12.20182680     -0.00000002   -0.00000006    0.00000001
    8   -2.53380500    3.25446300    0.07548700  ******************************************      0.00005640    0.00008663   -0.00008422
    1   -2.62255300    2.25938800    0.11924300   -156.84192193  157.01209838  109.88660151     -0.00000007    0.00000007    0.00000005
    1   -3.16159800    4.03087000    0.02039600    -34.06890618  -97.06618664  -47.33256150     -0.00000001   -0.00000004   -0.00000002
    8    1.75451900    3.03941300   -1.61261600  ******************************************     -0.00003391    0.00000909   -0.00015251
    1    1.73045300    3.47648000   -2.51170400    -99.10743982  -23.64308979   43.86547335     -0.00000004   -0.00000001    0.00000002
    1    1.07785500    2.74164100   -0.93924800    157.82107786   80.73508891    3.42846397      0.00000007    0.00000003    0.00000000
    8    0.36126800   -2.66407900   -6.70679900    151.92528502  -25.85531214  -29.46350346      0.00000000   -0.00000000   -0.00000000
    1   -0.04606900   -3.56081400   -6.53385200    -77.35758561   90.18239032   -6.86481026     -0.00000003    0.00000004   -0.00000000
    1    0.02866700   -1.72318800   -6.77056700    -79.91891930  -83.23751991   21.06816787     -0.00000003   -0.00000003    0.00000001
    8    2.72678200   -3.84883200   -4.41477300   -344.80836825-5656.83057107 8943.65975435     -0.00000001   -0.00000015    0.00000023
    1    1.81922300   -3.71606200   -4.81311300     57.56885324  103.98150641   93.78732919      0.00000002    0.00000004    0.00000004
    1    3.39189200   -3.27747300   -3.93399700   -107.17868503   59.81901676  -27.78191672     -0.00000004    0.00000002   -0.00000001
    8   -2.78152400   -6.03402800    6.98581400    -46.84883025  237.26594301  -15.68391723     -0.00000000    0.00000001   -0.00000000
    1   -3.48887800   -6.66625300    6.66972900    103.61231180  -54.06963382   30.39559084      0.00000004   -0.00000002    0.00000001
    1   -1.81164900   -6.09882900   -6.77943100    -40.71057947 -110.98005993  -43.96242495     -0.00000002   -0.00000005   -0.00000002
    8   -1.83228300    2.80866400    5.68024200      3.69114950 -247.24563884 -106.14515106      0.00000000   -0.00000001   -0.00000000
    1   -1.20718600    2.81623600    6.46073100    -24.68425345  158.71762947  -45.55732273     -0.00000001    0.00000007   -0.00000002
    1   -2.14065400    3.47278500    4.99920000     97.23041036   54.59750427   83.34461924      0.00000004    0.00000002    0.00000003
    8   -1.83998100   -4.67408000    5.13166900    -24.06318076   97.02439568    2.92410512     -0.00000000    0.00000000    0.00000000
    1   -2.50006700   -5.42421500    5.09230100    113.62021562  -40.85272868   16.32926023      0.00000005   -0.00000002    0.00000001
    1   -0.84714900   -4.59348600    5.21974500    -36.26889224 -112.63903565   -6.90574330     -0.00000002   -0.00000005   -0.00000000
    8   -5.71030500   -1.87044500   -1.06341700  ************** 5871.6544038666681.49415434     -0.00000361    0.00000015    0.00000174
    1   -5.17715000   -1.07648900   -0.77127900    -74.75142732  -46.86706200   50.31094904     -0.00000003   -0.00000002    0.00000002
    1   -6.52838200   -2.34601200   -0.74006900     40.95758718   76.28899654   75.21424488      0.00000002    0.00000003    0.00000003
    8    4.94711500    3.04753600    3.61989700  **************45891.76468113**************     -0.00000804    0.00000120   -0.00000482
    1    3.98585500    3.32311200    3.62227300     74.48201782  103.86962578   -1.47232888      0.00000003    0.00000004   -0.00000000
    1    5.82998900    3.51709900    3.61673400    -52.99099276   42.85969087   72.55791537     -0.00000002    0.00000002    0.00000003
    8   -6.12601000    1.69566000   -6.12214600     43.45536665  285.19033363  117.71972748      0.00000000    0.00000001    0.00000000
    1   -5.26411500    1.27262500   -5.84260300   -101.65039112  -81.33532068  -15.59671223     -0.00000004   -0.00000003   -0.00000001
    1    6.94136100    1.38015300   -6.29714900     82.92663293  -97.92048111   33.33281436      0.00000003   -0.00000004    0.00000001
    8   -6.54531700   -6.07109600   -3.08260600  37615.90749043-8544.0744088616696.71829551      0.00000098   -0.00000022    0.00000044
    1   -6.70404000   -5.08814400   -2.98997900    121.08466255  -57.16443229    4.81263491      0.00000005   -0.00000002    0.00000000
    1   -5.74736800   -6.67378800   -3.08485800      2.34434974  106.71702254   28.68726805      0.00000000    0.00000004    0.00000001
    8   -3.66526500   -6.12790100    1.15126300  72281.30379682****************************      0.00000189   -0.00000045   -0.00000077
    1   -4.50509100   -6.57696000    0.84629600    -54.01977840  169.51598385   27.32852864     -0.00000002    0.00000007    0.00000001
    1   -3.43166100   -5.40348300    1.79981100   -153.09527559  -39.86172440  -25.18177602     -0.00000006   -0.00000002   -0.00000001
    8    0.27645100    5.21547400    6.56836500  ******************************************      0.00001785    0.00011985    0.00005868
    1    0.70764200    4.40862500    6.16458900   -341.03177236 -123.45876668   75.70398419     -0.00000014   -0.00000005    0.00000003
    1   -0.27763800    5.40521100   -6.62111000    -19.67420514 -137.20500447   31.02463736     -0.00000001   -0.00000006    0.00000001
    8    4.24356500    3.79500600   -3.27384000   -261.42921150  151.56302821  -69.81817388     -0.00000001    0.00000000   -0.00000000
    1    5.20794100    3.96850100   -3.07422600    -14.12852340 -125.37994189   51.26890459     -0.00000001   -0.00000005    0.00000002
    1    3.55654100    3.13032000   -2.98031800    106.11061591  -19.67292477   65.83149937      0.00000004   -0.00000001    0.00000003
    8    2.48879800   -3.13720500   -1.50729900   6202.08141248 1273.07058484-7539.82297491      0.00000016    0.00000003   -0.00000020
    1    2.25326300   -3.34792100   -0.55856900   -281.58894158 -340.31678493 -143.09968067     -0.00000012   -0.00000014   -0.00000006
    1    2.02666000   -3.19215500   -2.39238400    -78.02126056  -42.77385522   85.25453636     -0.00000003   -0.00000002    0.00000004
    8    2.92805000   -2.96758900   -5.76446900   1370.90858498 7178.22641903**************      0.00000004    0.00000019   -0.00000027
    1    2.07370800   -3.48181300   -5.68936800    129.20183298  -59.64601450  -32.72039813      0.00000005   -0.00000002   -0.00000001
    1    3.90169500   -3.19218600   -5.80370700    -77.81033821 -102.89421037   -7.52599410     -0.00000003   -0.00000004   -0.00000000
    8   -6.82673300    6.24774300    5.44447900  -8450.78457216**************-6561.07940673     -0.00000022   -0.00000072   -0.00000017
    1   -6.40522700    6.60738000    4.61203500     13.82509268  -88.61726982   48.05042119      0.00000001   -0.00000004    0.00000002
    1   -6.81019500    5.38064000    5.94230000     34.41314403    1.56098186 -127.73515239      0.00000001    0.00000000   -0.00000005
    8   -3.08177300    6.05150900   -5.78269900   -213.83018524   65.89712596 -201.64918789     -0.00000001    0.00000000   -0.00000001
    1   -2.91367400    6.92812900   -5.33187100     12.73225097  -91.47672181   54.82017715      0.00000001   -0.00000004    0.00000002
    1   -2.93600100    5.08788300   -5.55877500     31.62766460   49.20582423   87.07582665      0.00000001    0.00000002    0.00000004
    8    5.85244400    3.73832600    6.80908800   1858.53965132 -154.18581006  807.97923210      0.00000005   -0.00000000    0.00000002
    1    6.37543200    3.16043400   -6.56442000    -89.32695584  -53.73930908  -51.51624149     -0.00000004   -0.00000002   -0.00000002
    1    5.06981100    3.61359100    6.19925800    -34.40233566  -66.74814069   36.17446562     -0.00000001   -0.00000003    0.00000002
    8   -4.50464200   -1.92113100   -1.64833900  **************-5778.14674288**************      0.00000361   -0.00000015   -0.00000175
    1   -3.52807900   -2.12207800   -1.72523700    -60.43579564   28.24529402 -102.91295729     -0.00000003    0.00000001   -0.00000004
    1   -5.23542100   -1.65292400   -2.27602700     79.34460958  -36.27675250  -14.37936043      0.00000003   -0.00000002   -0.00000001
    8   -3.41932800   -3.36944300   -6.67860300  12556.51940477 7777.71726279 6715.99891318      0.00000033    0.00000020    0.00000018
    1   -3.19158300   -4.31145100   -6.43218700     97.36069793   24.83057755  -35.90235103      0.00000004    0.00000001   -0.00000001
    1   -3.04070200   -2.67414000    6.71052600     58.16520022  -98.52039273   -8.76593482      0.00000002   -0.00000004   -0.00000000
    8    0.29833800   -0.81635000   -3.18771200   -284.40566688 8033.51097911-4548.18353065     -0.00000001    0.00000021   -0.00000012
    1    0.19073500   -1.79578300   -3.35829400    -71.17815587   20.70624200   18.62930645     -0.00000003    0.00000001    0.00000001
    1   -0.29423800   -0.01145500   -3.21877400    -45.37314248  -91.42055284  -30.28578110     -0.00000002   -0.00000004   -0.00000001
    8   -6.71128200   -6.22453800    5.48855100   2045.6963436526904.96689842  785.50640354      0.00000005    0.00000070    0.00000002
    1    6.41651000   -5.99083500    5.91820400     99.31445908   49.29428215   18.80911899      0.00000004    0.00000002    0.00000001
    1   -5.78759800   -5.84149600    5.48121500    -81.25130880   48.04224571   86.00308915     -0.00000003    0.00000002    0.00000004
    8    2.44043000    0.37298700    0.35131600   1749.79483731 -237.26963047 1606.85484961      0.00000005   -0.00000001    0.00000004
    1    2.79508600    1.21661000   -0.05177900   -100.71495323   24.13064520   38.04729156     -0.00000004    0.00000001    0.00000002
    1    1.60231700    0.09773400    0.82223900      2.11448556  100.65280595  -55.16742827      0.00000000    0.00000004   -0.00000002
    8    6.65545500   -1.81214200    4.62218500  35443.9968153713683.48037592**************      0.00000093    0.00000036   -0.00001105
    1    6.31672200   -2.74712600    4.72722400    -26.16013886   56.93196757  -88.18300441     -0.00000001    0.00000002   -0.00000004
    1    6.75521400   -1.16377800    3.86744100    -53.92586944 -106.81093120  -25.26867266     -0.00000002   -0.00000004   -0.00000001
    8    1.97390800    2.98088300   -0.62646900  ******************************************      0.00003424   -0.00000856    0.00015241
    1    2.01176500    2.50531200    0.25237400    -91.94518880   50.71758794  -41.07172135     -0.00000004    0.00000002   -0.00000002
    1    1.31552800    3.56597600   -1.09993400     67.51314376  -54.42534461   30.77777766      0.00000003   -0.00000002    0.00000001
    8   -3.05164100    5.28788200    4.76504600   4086.1904905416627.56768325**************      0.00000011    0.00000044   -0.00000079
    1   -3.00013800    6.27716100    4.90158000     14.69831121  -45.19261417 -127.24326045      0.00000001   -0.00000002   -0.00000005
    1   -2.99892000    4.66588200    3.98382600     -2.99266629  121.95178144  -42.24974501     -0.00000000    0.00000005   -0.00000002
    8    6.01434500    2.88668200    4.26165100  ******************************************      0.00000804   -0.00000121    0.00000483
    1    5.01525300    2.85234800    4.23709100     28.16273352  -23.84107446 -285.04690524      0.00000001   -0.00000001   -0.00000012
    1    6.76226500    2.37287800    3.84142800   -102.17593772  -38.73998057  -22.67538624     -0.00000004   -0.00000002   -0.00000001
    8    1.13184500    1.68654000   -0.45506300  **************************** 4426.12095471     -0.00000035   -0.00000042    0.00000012
    1    0.70212600    2.35802100   -1.05873600    -96.59552378  -94.45162094   67.34557567     -0.00000004   -0.00000004    0.00000003
    1    1.13565700    1.50122100    0.52759200    -58.36756081   80.94130166  -35.56076328     -0.00000002    0.00000003   -0.00000001
    8    3.67299700   -3.48007800    0.81491700  ******************************************      0.00000681   -0.00000275   -0.00000114
    1    3.70756800   -2.50832400    0.58153900    -89.32837161  -19.26061082   16.81001638     -0.00000004   -0.00000001    0.00000001
    1    2.95609000   -4.14279000    1.03130900    -68.60863859  156.63367471  -20.16123263     -0.00000003    0.00000007   -0.00000001
    8   -4.97329500   -0.04411600    4.88455100  16749.21351402-9876.1009748224828.71083280      0.00000044   -0.00000026    0.00000065
    1   -4.49980000    0.48947700    5.58529800    -58.42298551   93.69256669  -85.20212570     -0.00000002    0.00000004   -0.00000004
    1   -5.59735000    0.15419100    4.12877600    -57.40487035  284.51895895 -202.05245405     -0.00000002    0.00000012   -0.00000008
    8    3.32531300   -6.66617700    0.02488500   -248.54475560  -25.64055340   11.39488089     -0.00000001   -0.00000000    0.00000000
    1    3.14557800   -5.69200700   -0.11169400    113.86720924  -14.91307702    5.83033404      0.00000005   -0.00000001    0.00000000
    1    4.13653500    6.76273800    0.15038000     56.61549860  119.32290107   -3.27682087      0.00000002    0.00000005   -0.00000000
    8   -6.56508800   -6.02563800    3.22639300    517.34187271 -429.47335256 -554.35298838      0.00000001   -0.00000001   -0.00000001
    1   -6.44682100   -5.19160500    3.76525100     90.17709531  -58.78293252  -53.54703571      0.00000004   -0.00000002   -0.00000002
    1   -5.96242300   -6.66514200    2.74911300     40.77798325  103.98726862   52.69424240      0.00000002    0.00000004    0.00000002
    8    1.90860800    2.37511200    5.64090500     60.96403274   70.54332702 -192.07454065      0.00000000    0.00000000   -0.00000001
    1    2.76200700    1.96958100    5.96835200    -98.76401787  -34.97832817   55.60626342     -0.00000004   -0.00000001    0.00000002
    1    0.94279500    2.32098200    5.89436400     50.98578425  -57.14029444   77.42553631      0.00000002   -0.00000002    0.00000003
    8    3.82475300    0.89831800   -3.73432800   -402.90599282 -419.66731035  -51.83963582     -0.00000001   -0.00000001   -0.00000000
    1    4.46596200    1.05826000   -2.98383800   -120.23259529  166.79957850  -45.29922946     -0.00000005    0.00000007   -0.00000002
    1    3.32114300    1.46792900   -4.38385600     54.83589667   60.87681493   76.27224237      0.00000002    0.00000003    0.00000003
    8    4.08780700   -3.96373900    6.70502100    153.66704039  587.25681664  124.85681293      0.00000000    0.00000002    0.00000000
    1    3.63311000   -3.76894100    5.83595700     35.19434157 -111.11054027    7.80684758      0.00000001   -0.00000005    0.00000000
    1    4.52256000   -4.75935200   -6.87313000    -36.53201800  -16.03871291 -103.70542752     -0.00000002   -0.00000001   -0.00000004
    8   -2.96714200    2.58886000    0.72259900  ******************************************     -0.00005637   -0.00008662    0.00008422
    1   -3.28539300    1.64111000    0.70130700   -103.62723255   68.28482498   31.74950765     -0.00000004    0.00000003    0.00000001
    1   -3.39667300    3.49186400    0.72995700    -42.15375955 -142.90353005    0.26299005     -0.00000002   -0.00000006    0.00000000
    8    4.16807200    4.06380900    6.05225700   7938.31965963 7335.38831795**************      0.00000021    0.00000019   -0.00000044
    1    3.54241300    3.34182400    6.34765000    -22.91348208  135.48620386  133.47105532     -0.00000001    0.00000006    0.00000006
    1    4.31710300    5.02532300    6.28300800    -70.03018109  -45.58809312   70.73057239     -0.00000003   -0.00000002    0.00000003
    8    6.15244400   -5.70387000   -3.68085500  **************10562.19425604**************     -0.00000098    0.00000028   -0.00000045
    1    5.33500100   -6.27802400   -3.72667400    -19.53580912  121.83210327   25.86456501     -0.00000001    0.00000005    0.00000001
    1    6.34413400   -4.73785400   -3.50754600   -127.71777161  -32.03552311   -1.55557247     -0.00000005   -0.00000001   -0.00000000
    8    6.20890200    6.62197100   -1.34085600  -1048.31002665 1264.43401072 1213.05115489     -0.00000003    0.00000003    0.00000003
    1   -6.90618800   -6.92957800   -1.21518800    -84.07530136   68.46541023   -6.92054999     -0.00000003    0.00000003   -0.00000000
    1    5.24985600    6.87468900   -1.21306500     79.72640090   79.91194566   18.36006527      0.00000003    0.00000003    0.00000001
    8   -4.71145500   -5.71278300    2.02884400  **************20957.5163893749121.21618065     -0.00000127    0.00000055    0.00000129
    1   -4.84664200   -6.61582300    2.43653300     53.13023400   83.96210305   72.49864359      0.00000002    0.00000003    0.00000003
    1   -4.52282700   -4.79127500    2.36826800    -30.00226385  -77.11207816   82.25257832     -0.00000001   -0.00000003    0.00000003
    8    0.98511200    0.36467300   -6.54814300  ******************************************     -0.00000083   -0.00000101   -0.00000251
    1    0.05676100   -0.00687300   -6.53887600     80.37930182  -68.16916612   12.61313425      0.00000003   -0.00000003    0.00000001
    1    1.90914300   -0.00587500   -6.45418200   -119.28437723 -166.46364770  -19.36534821     -0.00000005   -0.00000007   -0.00000001
    8   -5.74235400    0.41338000    3.66250500  ************** 9385.18538359**************     -0.00000041    0.00000025   -0.00000065
    1   -5.28124600   -0.32861600    3.17589700    -98.95433395    8.82205927  -45.66362958     -0.00000004    0.00000000   -0.00000002
    1   -6.62297200    0.88186900    3.59181600      7.56475561  -73.76910398  -79.89487907      0.00000000   -0.00000003   -0.00000003
    8   -4.45559000    6.94035600   -1.58040700    -61.21232385   -1.21311300   -1.66149267     -0.00000000   -0.00000000   -0.00000000
    1   -4.61078700   -6.98589200   -2.56551700    110.81821305  -42.97371349   42.62373756      0.00000005   -0.00000002    0.00000002
    1   -3.69411400    6.67223900   -0.99029400     22.54153419    1.69130801 -107.00705512      0.00000001    0.00000000   -0.00000004
    8   -6.37127600   -3.39827300    0.43359000    -45.13782532 -281.55708758   69.01886647     -0.00000000   -0.00000001    0.00000000
    1   -5.47682700   -3.05001100    0.71401800    -90.26534908   89.89949282   -2.42079946     -0.00000004    0.00000004   -0.00000000
    1    6.70935100   -3.01884800    0.32987300     67.99590403   66.74906644   47.21156579      0.00000003    0.00000003    0.00000002
    8   -2.96635600   -2.95863500    4.01379500     35.91765197   63.82375304 -197.43758233      0.00000000    0.00000000   -0.00000001
    1   -2.95795700   -2.02133400    4.36216700    -77.30257963  -72.17952562   64.06188606     -0.00000003   -0.00000003    0.00000003
    1   -3.42355500   -3.81331800    4.25967100    -22.38556519   96.01936691   82.04551493     -0.00000001    0.00000004    0.00000003
    8    2.21333700    4.64458200    3.66951400  ******************************************      2.27459976   -2.48208187    1.96454722
    1    3.16069600    4.73098700    3.36127400   -108.88039041  -23.10477990  -84.23833254     -0.00000005   -0.00000001   -0.00000003
    1    1.35826600    4.30318000    3.27930300     96.33292432  135.48985297  -79.38245055      0.00000004    0.00000006   -0.00000003
    8    5.47497800   -1.62241600   -3.00499200    -40.37447702 -144.31550422   63.26883971     -0.00000000   -0.00000000    0.00000000
    1    4.72184900   -1.03861800   -3.30821400     99.61314297   46.34405804  -21.24754010      0.00000004    0.00000002   -0.00000001
    1    6.47320700   -1.56352600   -2.99884700    -56.92756981   86.63113023  -44.77941349     -0.00000002    0.00000004   -0.00000002
    8    4.39886900   -1.61827400    0.98129300    344.46700861  557.56172296  105.98329919      0.00000001    0.00000001    0.00000000
    1    5.04108600   -1.32844000    0.27170100    -75.33748898   89.64398002   25.92722465     -0.00000003    0.00000004    0.00000001
    1    3.66119100   -1.18922400    1.50255300     48.30881144   99.90611936  -77.53039552      0.00000002    0.00000004   -0.00000003
    8   -3.22797700    4.56929000    6.07275900  -4258.82698632**************30556.65729128     -0.00000011   -0.00000044    0.00000080
    1   -2.97403300    5.52103200    6.24499700     48.66583686  -69.74302573 -119.08571207      0.00000002   -0.00000003   -0.00000005
    1   -3.03900700    3.89174800    5.36198800     26.14457691  123.61994628    5.03711864      0.00000001    0.00000005    0.00000000
    8    5.86617400    4.96945800    2.81010000    103.15402685   72.61777353  745.13915949      0.00000000    0.00000000    0.00000002
    1    6.31949000    5.76808600    3.20590900   -119.33217460   26.36659890  -30.55301866     -0.00000005    0.00000001   -0.00000001
    1    4.96105800    4.76815300    2.43565700     18.38600227  132.55512792   24.08309028      0.00000001    0.00000006    0.00000001
    8    3.52982400   -6.16679900   -6.14000400  -2426.41735857 1541.88733815 -429.32912944     -0.00000006    0.00000004   -0.00000001