 BEGIN_INFO
   #
   # This is a XCRYSDEN-Structure-File
   # aimed for Visualization of Fermi Surface
   #
   # Case: Tight-binding calculation
   #
   # Launch as: xcrysden --xsf HICOLM.XSF
   #
 END_INFO
 # estrutura final
CRYSTAL
PRIMVEC
      18.81510119       0.00000000       0.00000000
       0.00000000      18.81510119       0.00000000
       0.00000000       0.00000000      18.81510119
PRIMCOORD
  300    1
    8   -2.92070003    1.55078100   -8.54444718      0.35241964    3.13435402   -2.04375455      1.39145120   -9.96452398    9.02551221
    1   -2.52680740    0.69324353   -8.88782190     -1.95616343   -0.13730634    2.71754943     21.27341851  -11.11860808  -45.96755464
    1   -3.48131698    1.59609672   -7.71538358      1.38872335   -3.15224807   -0.95475609    -19.36075894   48.28694650   27.69446875
    8   -9.26229710    8.77982466    2.86318881     -0.84266874    0.65960297   -0.65250581     -2.28899617   -7.59824496   -0.16219464
    1    8.79811283    8.83730699    3.52467544      1.53354981   -0.42198014   -0.09997834     -0.25988994    4.93836181    4.66196201
    1   -8.83980465    7.94560150    3.03567182     -0.07601960   -0.33273063    0.39460853    -18.40716609   -7.27530181    8.52308885
    8    7.93734727   -7.83096832    2.02103592     -2.64188219   -1.49405803   -2.32832407     -6.60244668   -4.54824153    2.16474227
    1    7.32146141   -8.30459874    1.36994720      1.34085171    1.86619982    1.20785841    -19.16296682   77.51817731  -41.12536220
    1    8.20975438   -8.59717084    2.50683376      1.18158911   -0.11779078    0.90098618     -1.67643864   26.03982161   16.17951147
    8    7.32684514   -7.07893407   -2.83611866     -0.42399244    1.40581261    0.91207917     -0.15062086   -6.07330734   -4.82966848
    1    8.12455467   -7.36402968   -2.39106089      0.53856526   -0.61049528   -0.17477098     -0.10872453   66.29741176   24.43179734
    1    7.13906046   -7.72702113   -3.49891119      0.16284954   -1.11478459   -0.76135190    -61.24329342   20.35364624   -8.89413939
    8    7.57425795    1.41707690    2.94168139     -1.73219146    0.67592488   -2.55851998     -7.29881007    0.71785816  -14.54545665
    1    7.62345648    0.97757573    2.07505672      0.78185674   -0.64914046    1.01364040     25.94420883  -19.34553588   13.33570730
    1    7.03860661    2.19554048    2.59721404      1.15457155   -0.10382382    1.32995569      3.48772449   31.99360228   82.16597298
    8    6.88730842    3.68091958    1.83612428     -0.95416672    1.58393085   -1.30433735     -3.85044305    1.04995820   -8.34159674
    1    6.21944827    4.39855384    1.73824133      0.00885311   -0.72365318    0.78194785     -0.07958462    0.83365242   87.37932641
    1    7.33069705    3.82970426    0.98624638      0.77460865   -0.71461548    0.24014860     44.54895920  -64.04606987   13.99870320
    8   -1.09929088    6.00542475    4.23703021     -3.76907383   -0.30948592   -3.71139694     -9.99801242    6.74079961    2.60645590
    1   -1.87722011    6.43093565    3.79166744      1.26237900    1.76216673    2.60418219     10.51534599   -1.94371095   28.95147107
    1   -1.22588538    5.31623821    3.57277920      2.47122214   -1.36535894    1.33234976     20.86673659  -41.88636769   20.53261565
    8    1.56059672   -7.89809210   -8.12950415     -0.11123192    0.22727180    0.81995012      3.92391326    1.98783079   -0.02259402
    1    1.72586829   -7.63126793   -9.04645702      0.12580837    0.34580657    0.38747776    -33.64440153  -13.64116943  -18.44872727
    1    1.77019891   -7.09785229   -7.59381738     -0.16455716   -0.86132830   -1.04711556    -30.38941501    9.27542864   47.28066640
    8   -7.63854564    2.77157216    8.27654497      2.25166097   -0.74220906   -0.76429330      0.73678155    1.05870434   -3.16113281
    1   -8.23209976    3.02041801    7.58139031     -1.11879755    0.44115164    0.22049664     73.56713833    3.06427989  -26.58461418
    1   -8.07527208    2.91958603    9.10973662     -1.11180986    0.53243646    0.14097660     10.72628721   10.12196100    8.66386741
    8    6.98662652   -3.93824636    1.03149847      1.93293803    2.04258870   -2.08090125     -1.57680665    0.35655231   -3.41368942
    1    6.58666263   -4.62219875    0.44879687     -0.76542330   -0.06758151    1.63044474      8.37524136  -25.93775490   28.34190659
    1    6.74315251   -4.00000568    1.94859885     -1.35792439   -1.77373803    0.18372867    -12.55943832    9.25113678   -9.95904057
    8    4.61750695    9.28246569    9.20849372     -0.90680578   -1.01651043    1.58385259      0.22107032   -0.88073277    1.88006894
    1    3.96778550    9.11764956    8.53307040     -0.01675994    0.49256382   -1.54559557    -18.82087798  -24.02181706    0.78091217
    1    4.11655357    8.89160620   -8.86733153      0.93601055    0.57396431   -0.03583147     11.90891233    2.62482485   46.26469939
    8   -6.76480687    0.31776080    3.18796950     -0.35678241    0.72205298    0.78242089      7.20046592   -0.35226481   -1.58996264
    1   -6.95227358    1.17025957    2.78650538     -0.21806405    0.13541469    0.32446071    -42.80850564   53.51858547   64.70571812
    1   -6.36975898   -0.13584086    2.47995079      0.58840763   -0.90437320   -0.95657720     -5.41298493 -102.37429970   29.87750331
    8    3.55932013    8.26173937   -2.27204652      1.17229672   -0.15904170    1.83188069      2.70641632   -8.11650975   -0.49737377
    1    2.67342993    8.24745920   -1.88336038     -0.05482026    0.12294478   -0.84101043      5.96267102    0.61987447    1.40293521
    1    3.48758548    8.40578422   -3.19784850     -0.99706386    0.16129719   -0.90412794     14.98015140    2.60039482    1.19309087
    8    1.03745781    6.27331807    6.00411895     -4.63372054   -0.72976894    0.27836439      2.49222678    5.66847990    4.48686690
    1    0.15074824    6.16054532    5.56726726      2.34892968    0.80050367   -2.95561203     42.68819510   18.92547475  -64.79890894
    1    0.52244148    6.06655981    6.76723797      2.39799526    0.06904303    2.51030754     38.59849397  -18.05453493    7.52432403
    8    2.85555990    9.00532994    6.89235557      1.42513535    1.90494567    2.94546982     -8.81829303   -6.65325119   -7.66393396
    1    2.39196738    8.16434533    6.94185705     -0.28556811   -0.14691257   -2.40967447      2.52215329  -18.24948519   36.07400296
    1    3.01314715    9.38110470    6.01291207     -1.15952369   -1.92540717   -0.45031006      6.46788190   63.83810861    5.01768428
    8    2.13696086    6.10302240    0.32510464      5.08090224    1.72175259   -1.20927952     -5.10213169   -3.29409099   -1.60966595
    1    1.87335383    6.18264378    1.28252239     -2.90559495   -1.60239278   -2.34944554     49.98414973   14.28524326   17.02943199
    1    1.60758757    5.73640265   -0.42463231     -2.18540950   -0.13455795    3.47507496    -12.58524847    5.25042526  -24.23265181
    8   -4.24459519    0.95799763   -2.75336862      1.61463741   -0.49204498   -1.20432385      3.58229608   -0.70464274  -11.57957941
    1   -3.67244826    0.73390865   -3.52461875     -0.40632860    0.40264367    1.00497537     76.54209098  -10.43170781   54.83142802
    1   -5.09602616    0.97454207   -3.17129783     -1.15869235    0.15502363    0.01775186    -33.69533187   53.39469941   63.69418327
    8    2.26576873   -4.25514501   -4.88525715      3.66423474    1.06447903   -3.40683193      3.18734316   -1.00391523    0.44155271
    1    2.32427141   -4.30530020   -3.90431031     -3.70920228   -0.75935128   -0.32278759     27.50037314   29.98691711   37.19707026
    1    1.41687020   -4.40245227   -5.39497515      0.10021030   -0.11143397    3.68908904    -29.00306847  -14.46890678  -34.30367767
    8    6.50528300   -3.10150071    7.96901307      0.44296744   -1.16185651    0.59589841      4.02948762   -6.44505458   -1.10041817
    1    6.21980375   -2.32691021    7.50381074     -0.49730137    1.04537414   -0.80792942    -10.53731723   10.10245383   30.81156105
    1    6.60954078   -2.78444952    8.86322494      0.00241914    0.11931687    0.06495903    -30.31352689   44.85886825  -27.02262148
    8   -5.44357594   -3.43639154    0.91242684      1.63571097    0.14797389    0.01909464     -1.35155443    7.40308036    0.50803683
    1   -6.32599198   -3.85632794    1.05222510      0.29014894    2.06578313   -0.45883798     -5.68064038   10.45261020  -24.40789516
    1   -5.45652581   -2.45041510    0.70030562     -1.84518573   -2.28989224    0.43580807    -23.53432903   -1.47028106  -17.67178361
    8   -7.43625365    0.25977872   -8.44072259      0.97201333    2.29414230   -0.09404669     -3.96245172   -8.12990719   -9.27862719
    1   -6.71218203    0.41231728   -9.09520159     -1.05256454   -0.67098278    0.27629215      4.74800726   28.97276488   13.43076510
    1   -7.74723819   -0.62121271   -8.60325507     -0.09019849   -1.45070483   -0.33885046     54.69974560  -16.11012247   25.80053203
    8    2.23557144   -2.47189349    6.69152131      1.07944588   -0.77980578   -2.20168778     -1.45386023    2.60927532    3.12229710
    1    1.28382023   -2.49106092    6.50802005     -0.15507534    0.49284610    0.91659472     -0.76398374   -0.98774819  -66.88574988
    1    2.38024803   -2.28366660    7.59930200     -0.89968648    0.33722877    1.19219693     42.43865211    9.57039844    8.27809348
    8   -5.14559523   -7.38637968    2.77485854      0.65623693   -0.22587524    0.03229883     -2.58786500   -3.79253368    0.90629179
    1   -6.04119068   -7.03340436    3.00105849      1.38855968    0.81979799   -0.29190535     28.04888044   -1.49471373    7.53694426
    1   -4.48405197   -6.63220642    2.72416569     -1.93734563   -0.42597475    0.25119479    -39.81652674   26.70723980    6.96372878
    8    5.36764667   -1.00610298    6.51442632      2.11982415   -1.19277706    0.74640515     -2.62494714    0.26107053   -4.88998392
    1    5.96943112   -0.39916450    6.00068953     -1.70558994    0.20508363    0.21191754     52.33774559  -15.68332412   17.18201576
    1    4.46421516   -0.79212449    6.34734336     -0.39820914    1.08174388   -0.86573748    -13.14337093  -48.61247438   -8.78846355
    8    6.35713037   -1.05300617   -0.49173466     -1.78300532    1.28231351   -0.30069903      0.95010234   -7.52352745   -2.05687590
    1    6.32186398   -1.75459258    0.16959034      1.58510414   -0.43208301   -0.61162808     30.23073652   13.37181414   19.54055961
    1    7.20975131   -1.00309455   -0.97753105     -0.07557871   -1.00712186    1.25363458      1.27914466   23.57687277  -21.45929356
    8    1.24408973    0.08949450   -7.79132893      0.16927052   -1.47766285   -1.50592523      3.32452399    0.16622847    0.95794169
    1    1.12929879    0.88686103   -7.24821208     -0.17313008   -0.14048411   -0.95427034     26.61772032    7.69148611   -3.56470688
    1    1.05224291    0.35298512   -8.75387937      0.16739833    0.21582810    2.52682157     -4.97122710    5.29760354   18.66723271
    8    6.51422825   -4.98775899   -7.48673683     -2.10234982    1.43115715    2.95797386      3.27960688   -1.35947864   -1.03470094
    1    6.00780388   -4.98984724   -6.62613122      0.55019215    1.21906186   -1.39463523    -15.67660761  -26.38337748    8.11951509
    1    6.67969837   -5.87555061   -7.46225755      1.24645799   -2.57469393   -1.26220346    -19.33606292   10.09694517   14.49960945
    8    4.47781022   -7.56328578   -2.63656249     -0.66503169    0.47558962   -0.59437235      3.97027743    2.43887425    0.71380650
    1    4.37763161   -8.44582719   -2.31313931     -0.12296903   -0.73546938    0.32145092    -30.77397215   -3.97219547  -29.51791405
    1    5.33493413   -7.30994360   -2.32482794      0.80719211    0.10039426    0.34853786     -4.26564336   60.34459444  -17.93502389
    8    8.30094364    0.04471544   -1.91824126      0.48983684   -0.64085190   -0.24954509     -0.61002096   -0.89370993   -9.30281523
    1    7.92648806    0.92371412   -1.86747771     -0.17497756    0.13298733   -0.15221891     27.25840350   25.94375542   84.03159468
    1    7.85500122   -0.36116606   -2.68242875     -0.06605886    0.44510048   -0.11474557     32.65538684  -66.04578002   15.27484583
    8   -4.69905327   -5.56493056   -1.82133958     -0.09137718    0.57491352    0.35122131      4.07546162   -0.84459843    4.04890386
    1   -3.98801770   -5.08611378   -2.23116605      0.32153100   -0.07346804   -0.33142087     11.30408219   14.81514822   23.35886362
    1   -5.09975287   -4.87451548   -1.28091915     -0.18364346   -0.43947113    0.04899851     25.49600426   34.75178711   -8.48883627
    8    8.83181191    1.89699771   -8.48433875      1.36606974   -4.63885935    0.87513953     -3.08458238   -0.91128904   -9.37136131
    1   -9.23740020    1.22864634   -8.45741788      0.40830703    2.63822145   -0.71188518     20.00696697   15.92607394   -6.32068887
    1    8.25207745    1.16791983   -8.17723822     -1.62331620    1.74118778   -0.11177492    -55.18500707   23.16697960   -7.56144275
    8    1.11101322   -4.82422226   -2.45356629      0.89815713    1.34220776   -2.65896612     -0.49366497  -12.96164329    4.18860642
    1    1.52598969   -5.01676745   -1.55331854     -3.79059396   -0.89009209   -1.15632089     10.56676662   21.62047717    8.25920685
    1    0.12977622   -5.06045739   -2.72325675      2.91369491   -0.53297685    4.10536221    -16.67871865  -11.58714256  -32.67989272
    8    4.72375245   -5.41122729   -4.46184581      5.78839131    6.29268563   -3.42281955      4.07508231    0.38120794    2.85813306
    1    4.91817837   -6.29434292   -4.09349405     -5.60697088   -0.44800778    0.76090451     39.19450114  -32.14780428   23.12923602
    1    3.88429108   -4.81456113   -4.64181045     -0.19900216   -5.87960904    2.37541536      9.90622876   66.00081798  -13.18451994
    8    4.94572173    8.99558751    0.26886070      0.36650641    0.79981292    1.34122150      4.62356389   -3.17134375    3.16247287
    1    5.08674770    8.20422183    0.82712439     -0.26067325    0.21658863   -1.34833997      5.88292849    5.58171074   46.18021917
    1    4.80278129    8.72202906   -0.63951274     -0.08847970   -1.04100958   -0.00437488    -12.02318381   45.00509243  -11.40032751
    8   -4.65641616   -2.40571484   -4.66257585     -1.09069158   -1.23265041    1.19631126      5.87991690    1.99484607   -1.17738160
    1   -4.02109629   -2.41719850   -5.38257741      0.24424305    1.32168886   -0.12075202     15.98832096  -12.78766221  -17.28994499
    1   -4.98968277   -1.50841996   -4.51995704      0.75893777   -0.10044551   -0.91963259      4.38198915   -6.09855361   27.46718694
    8   -7.94663973   -2.43166961   -1.09018467      3.91240630    2.10102674    0.16489897     -1.88406281   -0.09571624   -9.65427521
    1   -8.72853624   -2.05282202   -1.53427559     -1.03947180   -2.54496922    1.14910096     24.36397871    2.12440460  -38.95072633
    1   -7.96876055   -3.29945504   -0.62807523     -2.90992157    0.49252177   -1.36383171    -34.56799896    9.51883195    7.00992994
    8   -9.14926709   -4.65541789    0.41526318      1.07186667   -0.95110517   -0.96553323      2.29359178   -2.88735460   -3.07531497
    1    8.79466543   -4.70948754    0.01466326     -0.43787251    0.37999263    0.38496617      8.45991528  -21.56119231   -3.74592888
    1   -9.15172616   -3.84523280    0.89685180     -0.62066160    0.67834854    0.55261657     11.11863212  -39.34533843   27.24475631
    8   -3.51514624   -6.48412266   -6.20916271      0.61980739   -1.94577209   -0.39633250     -5.40944655    4.74753762    1.85499881
    1   -2.72051009   -5.92726711   -6.15425170     -1.43928771    0.77583551    0.18933848     46.49571555  -31.72058059   -7.60419279
    1   -4.33046056   -6.00639614   -6.04013020      0.80678799    1.22442388    0.19645814    -38.70250254  -43.12680414  -11.01990773
    8   -2.64426831    7.06033107    0.21154799      5.52760806   -1.37172306    1.15548903      3.41405711   -3.27991999    0.36164482
    1   -3.30286021    6.71126253    0.83628541     -2.14916317    1.77702887   -2.47647195      3.03298952   32.65881414   -9.58544053
    1   -2.80724775    7.63013035   -0.56399981     -3.42897829   -0.51724521    1.33361084    -46.52921140    1.96859808   17.20656679
    8    8.60821839    4.24233488   -0.56504405     -1.11015739   -0.81077398    1.03165985      1.29079277    3.58692858    5.66813326
    1    9.38330183    4.01569948   -1.06053417      0.54648540    0.43418437   -0.43910807    -20.73389502    0.68216609  -17.39152130
    1    8.51782018    5.20103771   -0.60177045      0.44831823    0.29927808   -0.43845177     18.90641683   -5.38444074  -12.99166600
    8    2.18503422    3.94305812    4.25921154     -1.18408354   -0.33032285   -1.66184995      3.83281028   -2.69466481   -2.38831026
    1    2.49528846    4.84348676    4.47229776      0.48540282   -1.18854994    1.13028713    -25.42954097   13.17821856  -29.68025051
    1    2.57035824    3.25220160    4.81734814      0.62546794    1.52209276    0.51025380      8.43261674   24.62767735   45.39703593
    8    0.58521332    0.23415565   -2.30830669      0.34001787    0.21524728   -0.56171255      2.40135505   -2.61714045    2.68108328
    1   -0.33859356   -0.04075440   -2.38899113      0.13416033    0.01322557    0.90626920     -3.50810286   19.04022943  -13.45589140
    1    0.82191409    0.20554917   -1.37082234     -0.74450554   -0.28895142   -0.25037018      4.54004628  -28.77269768   15.19755011
    8    1.96020116    2.60595724   -2.91848347      3.32435494   -2.16378318   -1.37310681      0.96335915    3.74986866    6.02111535
    1    1.04898065    2.27857481   -2.72551419      0.25192920    2.94123980    0.81034862     23.87368043    1.83427838  -10.49569705
    1    2.25070647    3.54530757   -2.81509181     -3.27831440   -0.62715608    0.80097424    -34.49679704   26.14458705   10.13781300
    8   -6.44198107    8.57561411   -0.30180951      2.69640315   -0.71339415   -3.04160898      2.77588577   -8.13817316    9.68880862
    1   -7.37176832    8.77895939   -0.53481503      0.23158142   -0.02942694    3.43657128      8.84755616    1.96563795  -49.75949989
    1   -6.13408917    8.50511943    0.63083934     -3.11676114    0.80289976   -0.19489420      2.72298425   -3.73842836   -0.56113384
    8   -8.03288160    8.54056401   -8.72981637     -1.32693124    0.17716491   -3.77445300     -2.45834973    2.64110130    3.19406893
    1   -8.02779102    7.70399061   -9.32169238      0.74383859    1.45397295    3.02544100      5.38949962  -27.67845969   24.58383213
    1   -7.71344923    8.35861104   -7.85998489      0.56742198   -1.77062542    0.81870590      0.85328690  -12.55616855  -17.20850336
    8   -3.20504810    5.83611940    8.77454543      3.88565130   -0.76863154    4.21466086      2.58833643    0.48638610   -8.59378115
    1   -3.52158961    6.67312096    8.39954007     -2.03626849   -2.52337170   -2.35091475    -11.05911312   19.55494384    8.57537669
    1   -3.44591793    4.88420491    8.51379404     -2.05732984    3.21095913   -2.22526634     -3.64349414  -18.05996627   42.32363265
    8    6.05287341   -5.64801345    3.08683481      1.13541257    1.95576578    0.68357895     -3.24563853   -0.23568983   -2.37681862
    1    6.71783417   -6.25712135    2.69473424     -1.53657769   -0.79291317    0.04544993     43.38444440   25.24459147   34.56697898
    1    5.16530431   -6.02214871    3.11977851      0.68472908   -1.24535349   -0.64011144    -44.96922615   27.83511535   30.47104190
    8    0.55004740   -1.77052509   -5.96813164     -0.92572074   -4.24865555   -0.69831600     -0.61254071   -1.31103449   -1.23034904
    1    0.35663338   -1.12878005   -5.29849070      1.45101069    2.01813039   -0.50536814     -1.32204941  -17.46355475    5.74604992
    1    1.20781600   -1.52380226   -6.66029419     -0.86525205    2.11611995    1.29524249      3.52785267   -5.91427056    9.24029877
    8   -7.75619140   -6.42609622    3.44851409      1.25202571    1.71772609   -0.48807292      0.41993275   -2.71398413   -1.40585443
    1   -7.74018097   -7.37104683    3.55462356     -1.43057261   -0.50861795    0.46388593     40.30523189   -3.31617827  -14.92646372
    1   -8.61269662   -6.05314329    3.72641454      0.07179673   -1.36250079    0.06844167      7.49858818   43.90601582  -42.62734720
    8    4.69609613    5.10765344    0.91021643     -0.29848133    0.80602620   -0.74874650     -0.36275078   -3.01032909   -6.53349124
    1    4.25015830    4.26752143    0.88336257     -0.10387651   -0.47233177    0.18324615      0.88077512  -19.77433721   48.30764468
    1    4.07044723    5.67129098    0.39874737      0.41287020   -0.26553653    0.64412216     26.09211396   55.27477460   23.15747057
    8   -6.23925930    2.23201010   -6.66844260      0.93105380    1.23439413    1.02788737      0.42574731   -5.76260480   -5.35489925
    1   -6.67595936    2.11825132   -7.49230040     -0.65724509   -0.73537844   -0.84463601    -27.37505615    8.07567811    9.61412814
    1   -6.05083784    1.34845153   -6.35931563     -0.30025670   -0.40093575   -0.14789670      0.34424740    0.77301039   21.04221997
    8   -6.87450989    5.77799082   -8.91807757     -0.84731946    1.02293436    2.58524711      3.99929894   -4.51057720   -0.28170821
    1   -6.16945080    5.84308008    9.25202196     -0.96037316   -1.52196727   -1.34434883    -27.31312183   39.53089048  -11.10356560
    1   -7.66048734    5.16116516   -9.13847862      2.42742575    0.84476487   -1.29496599     -7.96426683   14.34299411   15.37185939
    8   -6.22853995   -1.36045119    5.50864260     -0.23616710    1.45432099   -1.23629468     -6.13686562    3.53021905   -3.64671387
    1   -5.61894987   -1.64163943    4.82675824      0.44075815   -0.70822252    0.45613287     20.32911301  -38.13284293   18.97537944
    1   -6.64892126   -0.62517630    5.00667010     -0.18477965   -0.51735255    0.74510155    -43.73965950   -2.25608853   32.68002325
    8   -0.38342884    0.48444256    8.20028604     -0.06676180   -2.39568496   -1.09099324      3.68670406   -1.81341667   -8.22566338
    1   -0.46356855   -0.25287358    7.53946723      0.08301264    0.64609950    1.42340878    -18.15001074  -79.30180822   74.73895084
    1   -0.36344513    1.20603985    7.61804920      0.06081842    1.61535442   -0.33916334     11.05546610   30.54747771   40.07019528
    8   -9.03078939    4.42300210   -8.89664409      0.23635492    0.52426537   -1.27818400     -7.00177364  -10.89398948   16.18078824
    1   -8.87342196    4.71359991   -7.99080928     -0.86864371   -0.76523200    0.41607628     63.91582813   35.63653100  -11.13527327
    1    9.14124656    3.68756947   -8.89860624     -0.04655821   -0.01752162    1.24071330      8.43724798  -22.07501589 -103.43218090
    8    6.30119183   -9.13577988   -4.82562153      0.01735273    1.67254041    0.95904126      3.62257526   -3.04531396   -6.03116305
    1    6.77781126   -9.28057744   -5.63703396      0.10147416   -0.71172497   -0.44322466     38.33769271   29.93382463  -12.08949484
    1    5.86908994    8.85341516   -4.62578267      0.19737172   -0.70112422   -0.40175784    -21.26819549   26.28662878   61.65341350
    8   -8.01990753   -2.40593810   -8.61438265     -1.16053411    1.77986405    1.25603658     -2.84835603    8.23899720   -5.83368282
    1   -7.37584306   -2.89345424   -9.10253014     -0.38712590   -1.47800712   -0.46248346    -21.19171425   -1.50334729    2.61673849
    1   -8.80453492   -2.98677163   -8.40197810      1.61978180   -0.32452012   -1.04686638     27.73422311  -39.47922845   21.59269876
    8   -0.20693039   -1.45012256    5.46748997     -0.13946360    0.07052982    0.13841890      6.51966426    0.74543233   12.09984332
    1   -0.21832139   -0.86076339    4.70646677      0.15489425   -0.11610037    0.06252429      5.95172802   -4.96124707    4.35265668
    1   -0.99014615   -2.00131688    5.31475367     -0.16362254    0.03358570    0.03790847     -7.83168570   27.50603535  -20.69532326
    8   -5.14104110    4.87801920   -6.43628273      0.73194891   -0.12342275    0.61569750      0.64294040   -4.34357409    4.62277360
    1   -5.57886699    5.37643971   -7.10726436     -0.43891136    0.59935061   -0.65403389     32.54534913   36.52190012  -14.64265366
    1   -5.56963305    4.02461292   -6.50805172     -0.19864622   -0.62624342    0.13403392     14.12513864   -9.67952699   63.21376305
    8   -1.57854268   -5.95501106   -2.40373508      0.69481401    0.69975337   -0.16743450     -7.15200656   -1.42866514   -7.19783803
    1   -2.01607802   -6.66486328   -1.88833272     -0.36515621    0.44591912   -1.36623764     -2.73154447  -26.82667917    9.93206119
    1   -1.97487184   -5.87135734   -3.30139226     -0.32960458   -1.09359067    1.35698649     13.17167113   20.32085783  -23.87185404
    8    8.15920484   -5.21877508    5.12126514     -0.94574861    1.97960848    0.48646722    -18.35229425   -4.14548350    1.74970020
    1    7.56612762   -5.16081676    4.39068333     -0.22901552   -1.30293714   -1.41583736     52.30638471  -64.67134465  -48.33391169
    1    7.78273345   -4.43676731    5.56893506      1.21427335   -0.80222961    0.90908330     44.00850724  -15.29557472   97.45745026
    8    4.22752056   -4.69798134    7.52967148     -1.81162081   -3.73851776    2.06978058      3.98868878    4.68806951   -5.80984116
    1    3.61924752   -4.13118545    7.00039162      3.13744874    1.44716425   -0.22763153    -47.96253324  -15.59442459    0.03794971
    1    5.19627478   -4.51672476    7.65445992     -1.36980998    2.67775916   -1.99902778     16.68430283    3.70497800   44.11739854
    8    7.20955450    8.87876903   -7.70160817      0.40319437    1.24313597   -0.34865911      0.38048919   -5.83901493   -3.67802586
    1    7.93071913   -9.36167229   -8.04428376     -0.29505957   -0.91480808    0.38834615     -7.31318960    2.98196737    5.59271708
    1    6.44296315    9.32719465   -8.07703133     -0.24511505   -0.35597325   -0.12334651    -11.16608719  -25.80703168   37.14232484
    8    0.94110154    1.86678608   -5.26104469      0.64514751    0.71468578    0.78295852      0.37653975    2.90221787   -8.13635257
    1    1.52840250    1.76624472   -4.47347875     -0.38365176   -0.65714004   -0.66229641     -6.08941538    3.33282859   18.88585294
    1    0.79255295    2.83193350   -5.17499469     -0.04116872   -0.39911837   -0.81325290     18.36866447  -11.17476670   18.70653724
    8    2.21711184   -2.73415349    3.79901116     -0.43392510   -0.32602857   -1.99348111      8.68402306    1.33860033    6.81954215
    1    3.10757257   -2.49071883    3.45500592     -0.81601104   -0.11524210    1.70561854    -15.48559165  -31.72932682  -86.71652715
    1    2.16811659   -2.66703336    4.75734364      1.32505477    0.44659515    0.28996287    -64.49796347  -24.65472550   11.92838712
    8   -7.80488973   -3.21874466    6.95081778     -1.26445004   -0.65211101    3.50057391      2.90853879    6.88617105   -5.02625406
    1   -7.12830867   -2.47340457    6.91807230     -1.03511588   -1.89142644   -3.13349411     11.18920508   12.87658461   91.15729157
    1   -8.06222067   -3.74399293    6.15425073      2.23922007    2.40781463   -0.47711315    -37.95987888  -38.34475816   40.09004246
    8   -3.90624564   -0.82530828    9.18840274      2.80326062    2.16630651    0.36557514    -10.31007173    5.32081990   -1.07871694
    1   -4.47161955   -0.04731190    8.92237595     -0.76965963   -2.63565068    0.04818045     79.42474330   75.54548064   -5.77129268
    1   -4.32809616   -1.66834203    9.23319696     -2.14575145    0.29161797   -0.59857293     38.27776524  -35.87154003   37.60170100
    8    3.65252373   -1.87831561   -5.57135919      0.58168731    1.32025099   -0.66821191      6.54573916    1.85304963    2.57729126
    1    2.90346237   -1.39344639   -5.94780258      0.28578389   -0.15439495    0.27386491     -4.12709797  -11.02963168   42.38832818
    1    3.27912285   -2.70795846   -5.33752182     -0.91531577   -1.26243034    0.46116204     -3.94483057    3.81308527  -15.59725889
    8    7.48107015    6.70223261   -1.17105887      0.62617639    1.44545032    2.20815081     -3.84058733   -4.03253512   -9.07984777
    1    7.73951230    6.54210621   -2.08446274     -0.33128827   -0.63766837   -0.98595912     43.66011546   67.81423699  -28.39446612
    1    6.78512788    6.10131490   -0.94578730     -0.52985628   -0.63848136   -0.70075133    -36.74888503   33.62511774   64.00638083
    8   -4.15465986    3.14626247    8.21865917     -0.20481556   -0.38543128    0.11482686    -10.20026759   -1.92076823    2.71505008
    1   -5.05507090    2.88338882    8.10912308     -1.03456024    0.66128854   -0.49260455     -6.52439242   88.31084276   -1.97913399
    1   -3.85305250    2.33200889    8.61641199      1.29038154    0.02995527    0.43006519     94.38745385   42.27454590    4.08198029
    8   -7.21385189    7.79342647   -5.96918040     -3.51838347   -2.02999560   -3.74756473     -4.75569659    4.18358586   -6.10090875
    1   -6.32208967    8.04866073   -6.09692730      1.24543894    1.02993958    2.55137231     -5.11890367   -6.00449945   47.91737200
    1   -7.62876290    7.91320641   -5.11245033      2.32679900    1.16908838    1.19746034     54.47253205  -22.54609960   -3.30882328
    8    8.16485358    9.00829635    4.96624487     -2.58383368   -0.60330894    1.06972214      1.20390224    5.29974285    3.04914118
    1    7.21176346    8.71787952    4.98241401      1.57287795    0.47622015   -0.20247300     14.47387558   -3.46439834  -76.65069719
    1    8.34658972    9.05764269    5.91870273      0.36368179    0.07438340   -0.17497722     60.85874649   11.02461990   -8.76110483
    8    6.25066167   -2.32771235   -6.26411603      1.27722291   -1.07980221   -0.27741656    -12.45933294   -1.08810939  -11.71489093