 BEGIN_INFO
   #
   # This is a XCRYSDEN-Structure-File
   # aimed for Visualization of Fermi Surface
   #
   # Case: Tight-binding calculation
   #
   # Launch as: xcrysden --xsf HICOLM.XSF
   #
 END_INFO
 # estrutura final
CRYSTAL
PRIMVEC
      14.30030174       0.00000000       0.00000000
       0.00000000      14.30030174       0.00000000
       0.00000000       0.00000000      14.30030174
PRIMCOORD
  300    1
    8    0.04922387    1.25529038   -4.76738464      0.00218241    0.00506261   -0.00219466      3.30299442    3.70200217   -9.70033686
    1    0.19655154    2.10053660   -4.34524489     -0.00707182    0.02671865    0.05595698     10.33833027    5.81199112    7.51076884
    1    0.33998648    1.39293972   -5.66785492      0.00488940   -0.03178125   -0.05376231    -22.51394031   -8.52669593    2.00780780
    8   -1.42980472   -1.29396202    4.94533050     -0.70774831   -1.27873823   -0.53366188     -1.62641008   -4.01489653    1.30994700
    1   -0.50991244   -1.59025998    4.85649703     -0.70732041   -0.08751475   -0.05769087     -2.74575906    6.80376949  -17.34666707
    1   -2.00020259   -2.04967763    4.62505669      1.41506872    1.36625297    0.59135274     -7.03335993    5.21526641   23.03175124
    8   -5.41331195   -7.09018570    4.94506827      0.61979552    1.42131951    0.75719940      4.01924958    0.55213148    3.96258127
    1   -4.67122005    6.71770936    5.25126534      0.26397655   -1.10955495   -0.14676634    -14.64178141    1.19385863    1.54305298
    1   -5.18116889   -6.22369315    5.32010927     -0.88377207   -0.31176456   -0.61043305    -17.14343364   -9.00609231   10.75179790
    8   -3.99326667   -4.78410994    4.82390870      2.62179880   -0.79580753   -1.31139178      2.10979467   -0.35138059   -0.57727796
    1   -3.01864154   -4.79565265    4.95236270     -1.37226967    0.53468820    0.94239306     22.00632137  -19.13452141    8.10698871
    1   -3.98869699   -5.18944188    3.94642639     -1.24952913    0.26111932    0.36899872     -9.34030638    1.67195620  -13.26223923
    8    3.27497826   -6.38660685    1.76904131      1.68060276    0.83788852    0.74607760      6.69503418   -0.83401377    3.11776144
    1    4.08078499   -6.40708241    1.22735945     -0.81778047   -0.24012340   -0.00603893      4.25838548   20.33666230    5.68552220
    1    3.60064219   -5.91732354    2.56740612     -0.86282228   -0.59776512   -0.74003867     -0.11488774  -26.01084435  -18.99985834
    8    2.98642330    1.33263156    6.70720165      0.00026942    0.00001814    0.00011114      2.69479965   -4.26803690    2.37740183
    1    3.54591093    0.64886923    7.04009691      0.00599645   -0.80418874    0.11634964      1.22831929   22.36409853   12.37424246
    1    3.53491597    2.09099820    6.83134838     -0.00626587    0.80417060   -0.11646078      3.91114442   17.62392048   13.74725537
    8   -3.21264310   -3.85631509   -0.99881011     -0.00002955   -0.00021191   -0.00009294      1.68904919    1.20986083    2.79361049
    1   -3.34468745   -4.08091405   -1.91986445      0.00002161    0.00006923    0.00012803    -24.08569272  -13.32164231   -7.61514122
    1   -3.22948825   -4.69950842   -0.54608200      0.00000793    0.00014268   -0.00003509      9.30844624   -3.00732455  -38.25887268
    8    0.28561497    1.96471516    6.85938885      0.62162474   -0.13545351   -0.67905372      0.09690409   -2.71848371   -0.52177518
    1   -0.18964507    1.81733900    6.04092240     -0.30210785    0.04228000    0.20448323     15.97271321  -23.13294083   -9.01691285
    1    1.20576288    1.89862814    6.57074309     -0.31951689    0.09317351    0.47457049    -25.15840554   -7.68171619    7.32380283
    8    2.08204152    6.77353724   -2.17129928      0.80159662    0.72237214   -0.80960150      2.84909203   -1.50323747    8.02030420
    1    2.30638668   -6.58635636   -2.21191367     -0.41676837   -0.39873278    0.41509724      3.69013186   12.07829435    1.97611543
    1    2.60483661    6.42719696   -2.90524530     -0.38482825   -0.32363936    0.39450426     10.13770787   -4.38065494   23.75804894
    8   -3.20261110   -0.58661617   -0.96297926      1.82661665   -0.15578725    0.35865513      2.43020050    8.18616176   -1.95150031
    1   -2.80453687   -1.42612620   -0.72751019     -0.92022895   -0.39101132   -0.08900469     22.66699545    3.32761434    9.22512925
    1   -2.40277771   -0.04507616   -0.92500386     -0.90638770    0.54679857   -0.26965044     -9.04261086    1.00418291  -19.08245966
    8    1.22391373   -4.52530077    4.42302526     -0.19265756   -0.12900594    0.03236502     -3.53493522    4.25436775    0.88978726
    1    1.22421601   -3.65156447    4.83891877      0.45056315   -0.36837400   -0.39475681     17.98327306    5.03378324    5.37344232
    1    2.06826447   -4.62680452    3.96363173     -0.25790559    0.49737994    0.36239179      8.44646142   -0.28079035   12.14817763
    8    4.34475326    4.51774255   -3.13597046      0.00004078   -0.00005762   -0.00003283     -3.03395086    2.59696787   -3.66653748
    1    4.89330369    3.86457917   -2.67442143     -0.23821526    0.21887365   -0.68000456     31.20401685  -17.62974920  -10.78315207
    1    4.39976907    4.31802095   -4.08341019      0.23817448   -0.21881603    0.68003739     -0.10073873   29.19569589    5.04206320
    8    1.69161356    1.86753414    2.30127836     -0.27543453    0.52602670   -0.15833595      3.07362914    0.27639756    1.81145239
    1    2.36235481    2.50878560    2.54637131     -0.02053315   -0.16489635    0.00311396     31.07683311   -8.77532267   12.75805113
    1    0.97469422    2.41308513    1.94934649      0.29596768   -0.36113035    0.15522199    -18.65174565    1.52569912    7.99267057
    8    2.91598477    5.10126302    0.06807537      0.41703714    1.17910916    1.22883156     -2.73735529   -1.02724182   -0.15025390
    1    2.54461490    5.54699319   -0.70631524      0.24272075    0.16805708    0.60437178     -9.07049204  -12.93694103   -5.89192160
    1    3.13850325    5.81420436    0.74166552     -0.65975789   -1.34716624   -1.83320334     17.62673457   11.86258352   16.16531422
    8   -6.46637844    0.01138343   -4.60634358      0.14403413    0.00173002   -0.10506853     -0.93143127   -3.94481579   -3.31193654
    1   -7.13967352   -0.02755124   -3.91686142      0.51688509   -0.05448440    0.01317069      7.99723377   -8.23719712   26.14062513
    1   -5.61429567   -0.14258383   -4.17218123     -0.66091922    0.05275438    0.09189784     -2.96769605   -3.55825384   -9.53617831
    8   -5.37112251   -5.39968271   -6.62980591      0.00097025   -0.05357311   -0.00998253      5.62459319    0.87146572   -0.16523495
    1   -4.50093586   -5.80063200   -6.74655134     -0.22535881    0.41015042    0.08704107      1.78188412   15.48264801  -19.32998134
    1   -5.21276405   -4.46343654   -6.46389062      0.22438856   -0.35657730   -0.07705854     13.92434702   -0.28588120   10.61001570
    8   -3.41229408    4.46597576    4.85382739     -0.51340080   -1.22993978    0.47869608     -0.12673061    1.16199532   -0.13623676
    1   -4.13754055    3.81108183    4.76285558      0.79661535    0.85740785    0.00207714    -12.45332873    0.23411563   14.17840876
    1   -2.85405312    4.08524276    5.55091092     -0.28321456    0.37253193   -0.48077323     -9.07591792    5.14074303   -3.29654578
    8   -5.76213908   -6.14391977    0.70270835      0.26535736    0.17738606    0.00087324      4.41632800   -1.93686937   -7.39205206
    1   -5.63977213   -5.24713614    1.00884082     -0.25201892    0.09016377    0.09619334     16.02731673   -7.17199540  -18.18386417
    1   -4.88793860   -6.37987867    0.39784446     -0.01333844   -0.26754982   -0.09706658     -9.51892410  -13.38354027    2.03533176
    8   -2.88113115   -6.30933870   -5.50270441     -0.20232375   -0.74264104    0.71419050     -1.77310418   -5.48304692    6.12750010
    1   -2.01204921   -6.08113094   -5.75672395      0.82179795    0.69619510   -0.69659360    -33.66482825   27.39769792  -22.91248035
    1   -2.69881943   -6.99698244   -4.85723393     -0.61947420    0.04644594   -0.01759690      9.47754953    9.27598221  -17.64027908
    8   -2.33132326    1.27614554    1.64584959      0.90196407   -0.66113589    0.59574805     -0.94555807    4.09465005   -8.71002343
    1   -3.01456657    1.74757103    1.22673222     -0.93333121    0.68326825   -0.61552524     17.25072263  -20.16924100    7.99917428
    1   -2.78521428    0.74065971    2.29625909      0.03136714   -0.02213236    0.01977719      7.88623823  -37.72020763  -12.72609082
    8    5.57642131   -6.23572267    0.55691647      0.05434686    0.02761711    0.00388103     -5.25407948   -2.36188767   -6.75090353
    1    6.42989435   -5.80362885    0.61637250     -0.05445822   -0.02766549   -0.00388137    -18.64177960  -25.53761390  -13.58755842
    1    5.69869570   -6.90720795   -0.11419453      0.00011136    0.00004839    0.00000035      9.22630984  -18.96223280   22.03447190
    8    1.88188157   -2.12052784   -6.68036004      0.00760375    0.01447240   -0.03919146     -1.70743553    5.10136830    5.30059921
    1    1.71440464   -3.01108465   -6.36707911      0.00586878    0.10088976    0.05604047    -12.58273569   -4.61436319    0.91196679
    1    1.84462209   -1.57334795   -5.89384998     -0.01347252   -0.11536217   -0.01684901     -5.92694762   10.23175678   18.60705057
    8    5.56547208    2.54189741    4.85035340      0.11990441   -1.00891879   -0.01708612      4.52525415    2.96077699   -2.80160355
    1    5.01613641    2.38478131    4.08920586     -0.23824337    0.42472879   -0.24354053    -24.03490240    1.21490311  -10.80316451
    1    5.84689887    1.64325987    5.06832446      0.11833896    0.58418999    0.26062665    -16.77347861    5.81214561   -8.21716841
    8   -3.95569542    3.06196005   -2.07283321     -0.00014851   -0.00004357    0.00018893     -1.19745197   -4.42759166   -3.34609480
    1   -4.38251764    3.70031803   -1.50139323      0.00008289   -0.00007061   -0.00010899     -3.18745896    4.99839800  -10.64744219
    1   -4.24364088    2.21392614   -1.73497575      0.00006563    0.00011417   -0.00007995     23.15228210   -0.30175618   18.08785576
    8   -0.93513870    3.78925815   -3.14239463     -0.07021645   -0.68754224    0.78388122     -7.51872782   -2.17698175    2.86098810
    1   -0.26782959    3.75407945   -2.44762724     -0.06016057    0.25923538   -0.38009766    -23.16641249    2.95420053  -15.73297326
    1   -1.54699087    3.08985027   -2.87232551      0.13037702    0.42830686   -0.40378355     -8.22900921   19.59133560   20.00004688
    8    4.26204395   -3.76813233   -0.45824865      0.06586394    0.07035733    0.07054676     -3.34151944   -0.63647464    5.00083602
    1    4.98965098   -4.31143696   -0.17178077      0.09724753   -0.32001306   -0.05404923    -14.87390056   -4.72179404   16.29980298
    1    4.43921557   -2.93571506   -0.02843345     -0.16311147    0.24965574   -0.01649753     19.08466794    4.99992149    0.88135145
    8    5.60883631   -2.54642017   -5.20422439      0.04197936   -1.09079687    0.03423001      5.57376492    1.52999235   -0.20215258
    1    5.31429223   -2.24421332   -4.33908610      0.06659083   -0.29340808   -0.16174840     -5.78696185  -15.96423491   -2.28713982
    1    5.63810444   -3.53021234   -5.14678672     -0.10857019    1.38420495    0.12751838      6.32795488  -11.69123074    0.95992377
    8    0.91686307    5.20612903   -4.81825391     -0.00867741    0.05817221   -0.03003125     -1.53851768   -2.29624553    3.06586695
    1    0.20287447    4.90464337   -4.25137997      0.18323418   -0.07507481   -0.05445798    -11.26885116   -8.22193929   18.41891594
    1    1.58423360    4.51795559   -4.76897090     -0.17455677    0.01690260    0.08448923    -15.92921759   -0.74485993   -7.38647159
    8    0.82434007   -4.43379880    1.30371925      0.01163686   -0.00448225    0.00098884      1.04772009    2.26516077    4.15497375
    1    0.60991351   -4.51934197    0.37477582      0.00011299   -0.00003986    0.00002947     -8.10530012    2.16823913   22.58877025
    1    1.71506918   -4.77815918    1.37251891     -0.01174986    0.00452211   -0.00101830     -0.05168766   -5.88111416   17.48999564
    8   -6.00468788    0.02073843    6.81942267      0.16587910   -0.07426002   -0.00789043     -1.00736781   -0.10281563  -10.44211465
    1   -6.19507487   -0.18874079   -6.56643845     -0.01255453    0.00698862   -0.00360628      5.25400272  -15.48820236    4.90068186
    1   -5.12584257   -0.33902578    6.67417006     -0.15332457    0.06727139    0.01149671     11.50593892   25.44291820  -11.32522755
    8    2.26990743   -0.19037110    0.37736105      0.00008324    0.00001188   -0.00017716      0.62410557    1.48303630   -1.96921412
    1    2.24522654    0.47947103    1.06100192     -0.00414114   -0.01287613   -0.00270041      1.18555854   16.66265721   -6.32534481
    1    1.79582996   -0.93138358    0.75526779      0.00405790    0.01286426    0.00287757     11.33138815   -1.27895999   33.30837912
    8    6.10532521   -0.05836204    5.06899289     -1.13481796   -0.76276915    0.22962251     -1.25850355    2.30713174    0.11344008
    1    6.97138967    0.03855357    5.48983381     -0.66663259   -0.62360780    0.35052769     -6.35916437   12.34024568  -28.81969144
    1    5.56338760   -0.73937282    5.56777487      1.80145055    1.38637694   -0.58015021    -12.21483915    4.11549213  -32.34283874
    8    2.79827674    0.09813266    4.15431144     -0.54847303    0.65436066   -0.50663469     -4.07437513   -4.62999672  -11.14460411
    1    2.30140441    0.58891044    3.45541159      0.65907286   -0.50651379    1.26682516     24.16718955   26.69830913   14.15670985
    1    2.69548972    0.60978708    4.97426513     -0.11059983   -0.14784686   -0.76019047     -1.14145465   10.99735727   32.07854562
    8    5.57996192    2.52042790   -1.51772770      0.19934052   -1.24104317   -0.32807993     -1.89920415    4.72420794   -2.87055213
    1    4.67699430    2.24373946   -1.36207893     -0.08074350    0.30467722    0.08822468     18.77729863   -1.08385347   21.87898185
    1    6.00288284    1.68942650   -1.80730831     -0.11859702    0.93636595    0.23985525    -27.93445030  -24.85469375   29.58228034
    8    1.73752554   -0.76275148   -4.11315622     -0.27478045    0.13823555    0.28152560      0.21398865   -2.14113492   -2.16079457
    1    1.40740264    0.11870061   -4.29397778      0.11012722   -0.04855864   -0.11779613      0.87657378  -23.76365086  -10.94587048
    1    1.28172478   -1.00669902   -3.30279497      0.16465323   -0.08967691   -0.16372947    -22.72295620   -6.03902880  -13.64838942
    8    3.23521333    1.23120448   -1.81305055     -0.61464716   -0.53034483    1.31622445     -2.34299351    2.80766041   -0.47703755
    1    2.84710817    0.87573076   -0.98493572      0.42619176    0.69968055   -0.86455008     36.25687283   -0.73017661   -0.62865269
    1    3.40460392    0.44198040   -2.31135813      0.18845540   -0.16933572   -0.45167437     12.85363594  -29.54044505    6.57616109
    8   -6.54887526    3.26213432    2.41098586     -0.13824660    0.42399077   -0.10818985      2.20934043   -6.48474426    0.32439569
    1   -6.89706339    3.80765030    1.70115081      0.06170090   -0.26187148   -0.01253323     -6.49966669   -2.22314170   -7.86330322
    1   -6.48474225    3.87777332    3.14131718      0.07654570   -0.16211929    0.12072308    -10.63346033  -14.92799459   11.42305066
    8   -0.68814646    1.12998883    4.42269640     -0.72990205   -1.34712301    0.36357068     -6.21350643    3.00520152    3.30014602
    1   -1.15712706    0.26835865    4.57507397      0.79397164    1.46493816   -0.38653490      4.26167296   -3.11183242    9.73527532
    1   -0.65750118    1.23188021    3.47064332     -0.06406959   -0.11781515    0.02296422     -9.44244513   -5.55420851   -4.32267482
    8   -5.21189608    5.05826766   -0.89507111      0.99007885    0.63384032    0.82237400      3.14717355   -0.36809872   -5.46412764
    1   -5.94380393    4.89546183   -0.29711407      0.09838611    0.03969862   -0.01012365      5.84492241   -2.15644455  -42.64161403
    1   -4.52447262    5.49562154   -0.33485002     -1.08846496   -0.67353894   -0.81225035     -9.23455241  -16.25810804  -15.94391885
    8    0.87580759    4.75188695    4.58968368      0.07051894    0.51794111   -0.56323237     -3.71022399    6.04298598    4.31595811
    1    0.56257736    4.02828662    4.06648559     -0.19499135   -0.67065848    0.09669416    -16.36502758  -19.77483186  -14.02025893
    1    0.98120649    5.43533919    3.92179251      0.12447241    0.15271738    0.46653821     11.53320024   28.62782046   -5.36470612
    8   -7.11162189    6.19431369    2.99677912      1.64594247    1.90892809    1.90574724     -5.88483379    1.95711066   -2.01730555
    1   -6.58516541    6.80738333    3.59044101     -1.37641690   -1.74161555   -0.66896227      8.20787330   30.74489324   -8.71639049
    1   -6.91617615    6.58665453    2.16857427     -0.26952557   -0.16731254   -1.23678496    -24.40645414   18.65676992  -12.74069811
    8   -3.07920713    0.16720104    6.60712418      0.15032332   -0.15445371    0.41057804     -2.15223405   -5.38901644   -3.49223367
    1   -2.76557212   -0.15491567   -6.83720237     -0.15036194    0.15449340   -0.41068354     -0.14405188  -10.32249377   20.55260875
    1   -2.36546151   -0.03686064    6.00284028      0.00003863   -0.00003969    0.00010551     -8.55936082   33.56975549   -5.65081653
    8    5.79046028    6.21128432   -1.39232578     -0.00111268    0.00465500    0.01046635      3.34177230   -7.61559222    1.30809868
    1    6.28379374    6.04283585   -2.20136164     -0.28196449   -0.06313654    0.14016725     20.58358248   18.85915603   25.45091872
    1    4.94812667    5.75944704   -1.50567453      0.28307717    0.05848154   -0.15063360      6.79580918   18.13097836   -3.43127651
    8    6.45054391   -0.43700959   -1.84103896     -1.01396947   -1.06246186   -0.28332089      4.80183768   -9.07792854   -0.54058707
    1    5.58473020   -0.77723923   -2.18454878      1.46862421    0.47410880    0.60112805     -7.49019798   38.18169166   23.97013248
    1    6.90571998   -1.22218522   -1.48772409     -0.45465474    0.58835307   -0.31780716     -7.74845148  -15.48518448  -10.02175202
    8    2.12653179    2.70316612   -3.87694733     -0.07137318    0.04342167   -0.33849522     -0.37979732    1.27458629    3.60289495
    1    2.81973909    2.53950485   -3.25361781      0.22785650   -0.08284384    0.50478282     -2.20003922    0.56898264  -24.68194896
    1    2.59047430    2.71496960   -4.71244572     -0.15648332    0.03942217   -0.16628760    -10.07689565  -20.31464758   48.82265431
    8   -2.38284445   -2.09437915    1.47482799     -0.53267177   -1.09746483   -0.32557985     -5.59833461    3.26156701    1.93901569
    1   -2.79785588   -2.94923033    1.22124628      0.53272488    1.09757426    0.32561232      6.39335329   25.34466646   19.17170837
    1   -3.10023103   -1.58835689    1.85631329     -0.00005311   -0.00010942   -0.00003246     -5.06975430    0.77623593    2.16605690
    8   -5.78117747   -2.74756111   -6.27070281     -0.80959150   -0.13180441   -0.10520608     -2.94976828    6.37805202    1.76090823
    1   -5.35983193   -2.24245784   -5.60201419      0.81875576    0.39722666    0.47760781     -9.76268477   -9.47417436   -6.11838127
    1   -6.70512805   -2.64395315   -6.03348283     -0.00916426   -0.26542225   -0.37240173      7.93395786   21.74846545   19.59998916
    8    0.45222510   -1.30314221   -1.78258483     -0.10963723    0.15606220    0.06096178      4.48511719   -1.82240301   -0.49642372
    1   -0.05105204   -0.55500733   -1.44393968      0.18265081   -0.22719592   -0.04081220      2.19871704    9.34203657  -12.43330662
    1    1.02668916   -1.55732563   -1.05821038     -0.07301358    0.07113373   -0.02014958    -15.52686223   15.46854272    1.71848579
    8   -1.37457639   -4.96173753    5.23492504      0.61792096   -0.00126690    0.33603637      0.35570611    0.98813188   -0.96915513
    1   -1.37982496   -5.14163093    6.18024206     -0.17863625    0.02836455   -0.24470848     -2.79263636    7.56046089   13.22198129
    1   -0.43732830   -4.83042956    5.04244083     -0.43928471   -0.02709765   -0.09132789    -15.13904068   23.51577840   -2.11927551
    8   -4.89759390   -2.24688619    5.40165246     -0.52478070   -1.48515478    0.81719213     -3.18912866    1.09222574    1.01475478
    1   -5.50146272   -2.49801034    6.13201238      0.59854224    0.63529095   -0.77957190    -19.26997472   -6.83512144    0.01805348
    1   -4.54798117   -3.11182518    5.12433449     -0.07376153    0.84986383   -0.03762023    -12.41587277   -7.30310175    1.37589461
    8   -4.05477691   -0.59842613   -3.74363321      0.63124691   -0.21583479   -0.54252177     -0.59495857    4.55850850    2.59128680
    1   -3.26520592   -0.86424568   -4.22506557     -0.42324781    0.13106373   -0.28498371      3.12829901   -8.84449276   -6.45204407
    1   -3.76085039   -0.67483529   -2.85154159     -0.20799909    0.08477106    0.82750548     15.07145887   11.50246207  -29.24937893
    8   -2.04583178    5.89299438    3.11944167     -1.69369637   -1.85684260    1.10077378      6.03619372    2.78086313   -1.45966990
    1   -2.66323672    5.30948890    3.70114286      2.18025499    2.37247445   -1.45138732    -11.81995393  -23.61426150   -2.91188581
    1   -1.72390565    6.62997048    3.65235085     -0.48655862   -0.51563185    0.35061354     31.54567853    6.28466458    2.80110934
    8    2.98653228    5.34171618    6.18277863     -0.61405701   -0.15440015   -0.47174383     -1.01901850    3.23338447    3.14338892
    1    3.59172043    5.33443408    5.43719439     -0.07676054    0.00562594    0.13026647     -9.27848748    5.47913542  -26.94465690
    1    2.11730327    5.15863876    5.78438437      0.69081755    0.14877421    0.34147736     12.62836880    2.69758959    9.01967161
    8    1.06953437    3.27418146   -0.81923158     -0.00014138    0.00002378    0.00007585      4.75403493   -4.13965747   -1.98538216
    1    1.94778314    3.27566740   -1.22404776     -0.37439095    0.32670264    0.31815428     -1.86169466  -23.39605878  -15.70814280
    1    0.96430092    4.13356003   -0.38843420      0.37453233   -0.32672642   -0.31823013      4.70129980   -9.25349612   -7.33049432
    8   -0.86524707   -2.82018701   -3.78842309      0.40355664    0.07525881    0.27599679      5.75535905   -4.78366180    5.56731345
    1   -0.43441208   -2.30727242   -3.09698601     -0.25862085   -0.04452454   -0.17347479      1.96889859    0.31004979  -33.41959697
    1   -0.19630152   -3.46121656   -4.03335500     -0.14493579   -0.03073426   -0.10252200      8.77514440   -9.68613408   -5.57784826
    8   -5.34361979    3.15135392   -4.57676813      2.66748022   -1.35634998    2.13427587      2.86421582   -1.29967563   -4.42490763
    1   -4.81929361    2.85029737   -3.73234527     -1.90775658    1.10737047   -3.22017293    -20.13578972  -24.15336171   12.75392140
    1   -4.74426064    2.94666258   -5.33148284     -0.75972364    0.24897951    1.08589706     -8.62302946   -0.80517360    5.80254697
    8    1.07828727   -1.76897262    4.99324679      0.27967384    0.34718642    0.52663506      1.03711920   -0.96934540   -6.20818019
    1    1.22248140   -1.60203340    5.92632484     -0.30472946   -0.38944106    0.03770346     36.44759291  -18.90220562    2.26665683
    1    1.60922562   -1.08446410    4.59988316      0.02505563    0.04225463   -0.56433853     45.56259781    0.70022249  -25.31684802
    8    4.05022382   -5.15355656    3.81331704      1.59097629    0.60904638    0.57192283     -4.27035518   -3.72275250    3.21606066
    1    4.77627935   -5.42486128    4.43084538     -1.19992187    0.42512535   -1.00547236      6.09492715  -26.89460785   -3.59342614
    1    4.35775504   -4.29710301    3.44434787     -0.39105442   -1.03417173    0.43354953     11.02182920   16.92575914  -16.54471267
    8   -6.75255193   -6.34823318   -4.46262756      0.35097108   -0.17669349   -0.26587508     -4.51341383    1.66273665   -1.20829804
    1   -6.53791131    7.09883583   -4.08676745     -0.14088833    0.00709189    0.15285718     11.48155904   -6.01406354   41.84226358
    1   -6.13997125   -6.27781493   -5.20041417     -0.21008276    0.16960160    0.11301790     28.26245106   -0.63594051  -27.08794360
    8    0.44548333   -1.72631168    1.38171054     -1.75757724   -0.89809504    0.67444260      7.73455890   -4.72929638   -1.25116828
    1   -0.50144260   -1.70566412    1.62043177      0.87739394    0.84730603   -0.43525744    -13.68368163   -5.55479787  -13.23404987
    1    0.61717134   -2.64854258    1.56535271      0.88018330    0.05078901   -0.23918516      2.90067912   10.63026687  -15.34005175
    8    6.84768186    4.36623081    0.06157821     -1.07125224    0.79193200   -0.80506174      2.18479664   -1.57273786   -0.95157721
    1    6.28910651    5.09625512   -0.28324918      0.82391536   -0.66826626    0.60519627    -29.98863716   27.96683920  -13.74898250
    1    6.51489278    3.60998866   -0.42541824      0.24733688   -0.12366575    0.19986548      4.73454153   10.72444527  -21.24991312
    8   -0.97517327   -6.61609252   -2.54044833      0.35877323    0.99760837    0.45720569     -2.56518200    3.13287071   -2.53887318
    1   -0.39911593    6.97159215   -2.79257679     -0.16251175   -0.48875280   -0.22280996     -9.35019172   -5.19649543    2.29508909
    1   -1.86218667   -6.89125313   -2.73705847     -0.19626148   -0.50885558   -0.23439572    -31.80353703  -25.07065970  -35.19290685
    8    4.26056052   -1.87996400   -2.91027973     -1.64741723   -0.96552754   -0.02671202      1.80039372   -1.02482501   -1.67094208
    1    4.11159932   -2.68472339   -2.41103455      0.99055607    0.11391899    0.34234044      2.14965072   15.96281326    4.28296278
    1    3.38892106   -1.82227424   -3.32195210      0.65686116    0.85160856   -0.31562842     11.47491249   21.27895158  -13.53319395
    8   -6.59326895    0.61096579    2.78670634      0.11633059    0.67801225    0.08000689      1.13755626   -0.01332115   -0.71043994
    1   -6.43015954    1.56219453    2.89908412     -0.11635112   -0.67813193   -0.08002101      0.95077582    3.74767283   15.91588467
    1    7.11040745    0.38832487    3.50134070      0.00002054    0.00011968    0.00001412      5.00292647   -2.98121613  -18.98264314
    8    3.80126197    3.28603178    2.17161230      0.16934785    2.31393645    0.17071995     -1.80449624   -5.25726259   -1.00342546
    1    3.57674843    3.51858844    1.26907939     -0.05076399   -0.60758132   -0.06880591     11.01827771   -5.23467139    1.68884294
    1    3.95072086    4.18678002    2.55615260     -0.11858386   -1.70635513   -0.10191404     -0.08087947  -18.91796299   11.28699748
    8    1.72846526   -4.54319415   -5.01297645      0.49481047   -1.02953640    0.25318267     -0.26770645   -2.22044013    6.04976515
    1    1.82677301   -4.79828382   -4.08951880     -0.20185153    0.42301877   -0.15567346      7.00358277    7.79833625   23.06605607
    1    2.11335557   -5.30623125   -5.46890069     -0.29295894    0.60651762   -0.09750921     17.59152509   -0.61274312    6.21548301
    8   -2.65713093    5.25947239    0.49252778      0.00002750    0.00006646   -0.00010751     -5.32398397    2.40381877   -0.84633222
    1   -2.50119489    5.51957766    1.40040206      0.00043813    0.00087097    0.00072837     -5.91953193    1.12871090  -12.30807932
    1   -3.06302326    4.39536552    0.56164530     -0.00046563   -0.00093743   -0.00062086      4.73462249  -15.71210184  -15.32564821
    8    2.39777042   -4.72101422   -2.06973255      0.43350411    0.51022702    0.73617635      1.69489002   -1.85312262   -2.62451069
    1    1.57341911   -4.69344799   -1.57587554      0.14688376   -0.03319133   -0.14166825      4.21551416   29.14484699   26.70544820
    1    3.02959863   -4.24186513   -1.49876583     -0.58038787   -0.47703569   -0.59450811     11.35063858   -1.05679644   23.57796201
    8   -1.65846780   -0.68860399   -5.41870721      0.00006846   -0.00000752    0.00003906      0.44616710    0.64572039    4.07049947
    1   -1.19222564   -1.48345588   -5.18498034     -0.02555444   -0.39823325   -0.03198976     -7.90057853   -7.07046079   10.77345104
    1   -1.09758549   -0.00661810   -5.06642070      0.02548598    0.39824078    0.03195070      1.12002677   -4.88309712   -9.35212080
    8    6.13928120    2.39174037   -5.41096029      1.16071993   -1.26187822   -0.48829173     -1.12764701   -1.95428403    3.66761909
    1    6.78515338    1.69363902   -5.68040562     -1.14122245    0.94701675    0.31658322     11.24037483   13.30583727    5.85076663
    1    6.68784369    3.02341040   -4.95798271     -0.01949747    0.31486148    0.17170851     16.90045333   20.73596967    2.30817934
    8    7.04526443   -3.89388382    3.95971548     -0.00013294    0.00004930    0.00012039     -4.67020540   -3.26737033   -4.90639924
    1    6.81713194   -4.29939053    4.78996712      0.08817729   -0.25341125    0.20100265      7.50277684    7.92382135   15.20879431
    1    6.42581661   -3.17405702    3.89701240     -0.08804435    0.25336195   -0.20112304    -17.31724224   13.43264202   12.77472372
    8   -2.71147795    5.71910450   -4.08433520     -1.06638913   -2.41494754    0.22297668      1.32425782    2.14013974   -4.27511732
    1   -2.09838317    5.01375401   -3.86890564      0.85162976    0.86142063   -0.00292780     -1.92540764   30.66362202    0.98625899
    1   -3.51521786    5.16126332   -4.12344493      0.21475937    1.55352691   -0.22004888     -8.95730270    9.66236493    2.16702917
    8   -4.88733886    2.29804327    5.76657987     -0.10967228   -0.74461384    0.33055819     -2.35132999    2.82914841   -1.98403289