 BEGIN_INFO
   #
   # This is a XCRYSDEN-Structure-File
   # aimed for Visualization of Fermi Surface
   #
   # Case: Tight-binding calculation
   #
   # Launch as: xcrysden --xsf HICOLM.XSF
   #
 END_INFO
 # estrutura final
CRYSTAL
PRIMVEC
      14.33511191       0.00000000       0.00000000
       0.00000000      14.33511191       0.00000000
       0.00000000       0.00000000      14.33511191
PRIMCOORD
  300    1
    8    4.46849048    2.54321494    2.05815558     21.73204978   13.34401213  -45.75112598     -2.88771601   -5.17253083   -7.53186957
    1    4.74471810    1.99252850    2.75395206      1.01489508  -17.24272577   33.66964241     23.64119147   -2.44669969  -19.40583646
    1    3.63340550    2.89879749    2.34319386    -22.31627608    4.66123571   14.65355356      0.77261643    3.36252461   -0.43818812
    8    4.37683926    6.41795118   -2.51388486     -8.88403915   12.07030401  -26.14745469      5.33293861   -7.25283286    3.62565130
    1    3.88102169    6.62915721   -3.37085329     19.69663365   -7.44809847   29.27899193      0.57493956   -3.35440840  -23.59702769
    1    4.94333057   -7.11762670   -2.44637627     -8.27835926  -10.24804628    9.37564429    -18.00792718    3.02594979    3.77044829
    8    3.28804868   -3.52081386   -2.27166611     -1.72658160    7.25237723  -20.79570969     -5.88976165    0.85410733   -5.09892920
    1    2.67280530   -4.04971090   -1.73297347     -4.33759249   -9.69219558  -14.25641675      7.11539748   22.80572047    3.00979202
    1    3.03460076   -3.74008672   -3.21655756     11.89730999    1.33635021   33.02707868    -32.05612912   12.70921557  -19.01085138
    8    4.75390390    0.78802851    4.93886927    -18.43242186  -23.52990929  -24.46905001      4.25536254    1.93680104    3.33683762
    1    5.55419207    0.33297352    5.19179026     19.54627549  -17.78640594    9.68973180     -8.93703389   -4.70150836    0.72419306
    1    5.01991261    1.67261775    5.04783014     10.84730999   42.67970545    6.81464387    -24.23676604    7.33324042    3.85544874
    8   -0.28110365    2.58451154   -5.11967709    -49.59293346  -19.91089850   10.57701981     -9.03194082   -4.16626577   -0.44939407
    1    0.28804259    3.31071884   -4.92994409     28.45034451   19.65702199    3.34262299     41.73144216  -25.24101524   -6.32319190
    1    0.30561214    1.86390332   -5.42590411     11.17161911   10.98035475   -6.85047898      7.99999921    0.33922477    0.61635295
    8    1.18623045    4.80258682   -3.98926603    -50.63359303   -5.29613299   25.05010137     -0.55522790   -3.82858140    1.83616334
    1    2.12409235    4.47133620   -3.94092059     -6.14281643   36.00392532  -32.14950046    -11.34707344   24.88474505   12.84756314
    1    1.08161975    5.59188752   -4.58281043     44.29711429  -22.91735293    1.61954332     15.37423392  -20.41783304  -15.00363415
    8    5.85024770    2.61374549   -0.27414342     27.34952933    8.80570261   16.16058843      0.62726707    5.39861581   -0.07125970
    1    5.15001106    2.42463209   -0.94445970    -16.07769062    4.62116687   38.54202778      1.35493918    8.49805234   11.51803514
    1    5.46403205    2.65367080    0.66617484    -20.93194080  -10.16596104  -51.36025248     -2.14568367  -21.57988610   -7.39726241
    8    0.49998798    4.58339152   -0.42812373     -7.89682416    2.71147366   10.83189832      1.83595736   -0.93664046   -0.66390343
    1    0.63813037    3.77557238   -0.96764290     12.00731764    6.99996845    6.38863015     -0.84447800  -17.09356497   -4.39578633
    1    1.41025885    4.89250970   -0.17455462     -7.06047206  -11.90622889  -13.09017252      5.64987427  -29.25550190  -15.69631002
    8    0.20906162   -4.88692301   -4.52087359     17.38220575    7.39545743   40.34349983     -5.85126547    5.00042781    1.80926111
    1    0.59881080   -5.02415126   -3.62276777     -1.92055272   -9.24747673  -24.93798584     -0.36895338    9.89751177    9.58772747
    1   -0.40964565   -4.18426714   -4.30013928    -16.09264599    3.41646411   -7.64072221      3.12744836    7.51504046   -0.72736954
    8   -1.66729461    0.80597465   -0.54630447    -42.20326739   55.08721051  -14.22591534      1.69588520   -2.42061780   -5.23627196
    1   -1.91253232    1.27633988   -1.42547826     20.42080473  -33.74461303   38.05188859    -11.04297573    5.89537324    8.98607456
    1   -2.13670416    1.40349101    0.10458752     23.33889300  -30.12337022  -22.39216739      2.90049157    2.41198028    2.52568829
    8    1.15608866    0.81278839    0.95688457      0.70306908   -5.22569514   51.78139536     -0.87934782    3.38361436    0.02616201
    1    1.72161001    0.17046398    0.51750983     -4.77119355    5.29319087  -20.90638510     11.51303057   22.45181811  -19.44801303
    1    0.79015642    1.38710780    0.29943270      1.70840799    1.30979531  -31.10826386    -19.54014287  -18.80526432   -2.90325635
    8    2.91657418    5.55102396   -0.11544193     25.53839669    7.54653971  -39.07003753      1.02696576    0.19039976   -3.18086647
    1    3.47876821    5.72637197   -0.94007909    -25.34324577   -1.80663690   30.45917081     20.16372506    9.97446288  -32.57501419
    1    3.60238267    5.37599392    0.53404839      7.73400770    0.54514895    6.13163267     11.59632473   -9.16264671   -4.35835875
    8   -0.92952873   -4.91415887    6.54531605      2.02617913   36.11738640   -4.54645667      3.52014727   -1.54234138    2.76345467
    1   -0.28790552   -4.80079173    5.80005063    -22.49191020  -35.71246975   16.27858737    -19.40596042    2.86575738  -18.07288687
    1   -1.20099821   -5.85964185    6.61115090     17.22831040    7.34326559  -10.45603730     10.74457942   17.46291329   -3.59551756
    8    1.42786666   -6.38847961    5.77439575     26.17151581  -21.79967114  -25.71643100     -0.27047915   -2.50583435    5.30924500
    1    1.47614507   -7.08781804    5.07548330    -12.83505140   13.66362627   16.54584924     -6.48875971   22.35716420   12.16157446
    1    2.38635338   -6.13720820    5.79893567    -13.87906237   11.14814038    1.40187997    -12.58353918  -17.27402345  -19.83933207
    8   -6.13148629    2.72793512    1.44618729     12.44596250  -24.06643042   22.64886999      3.68968730   -0.45208973   -1.32025808
    1   -5.56633532    2.73788674    0.65895450    -15.23015839   14.64974296   -2.99365713     16.14453706   -0.32964422   12.41299653
    1   -6.89703638    3.28839864    1.26325444      8.11175997    4.07968885  -17.42251105      9.10577646   -5.24445347  -23.07270724
    8   -1.90410940    4.12193002    1.03626419    -18.97632480   -0.81044362   54.12782150     -5.78242626    0.18498683   -4.36232063
    1   -2.53057047    3.93996454    0.30765017     25.78409693    3.39983747  -19.61332680      3.11810720  -12.70979612   -6.11330549
    1   -1.01506650    4.29250679    0.69750959     -6.72526961   -1.01263623  -33.73012796      0.72153997   19.91766764   28.86991173
    8   -1.99601445   -2.66371816   -6.54399827      0.82953995  -22.03100213    5.94766121     -4.41090729    0.95815215    7.07790807
    1   -1.59168711   -3.46694570   -6.99453556    -11.29953203   31.99072186    1.43747963      7.97964499    8.37446575   -4.22984292
    1   -1.96195373   -1.92409750    7.16529745     10.00992741  -11.85312630  -12.89929983     15.42306935    8.26584743   -9.66268170
    8   -6.55878959   -7.16151584    5.78887943      1.26210166  -13.97580124  -45.25628140      5.99381215   -3.30953304    8.41893075
    1   -6.74666999    6.90684260    4.83712351      6.36952128   10.01175557   40.86115648    -10.82088022  -30.18144260    8.79470288
    1   -5.59754420    7.06960218    5.84637859     -0.52525119   -1.92497440    1.83115906      5.47793202  -13.48131694    8.06437249
    8   -4.25780721   -1.61209590    1.29179452     12.49711215    5.68177836    6.90354552      1.17251930   -4.39956571   10.14696177
    1   -4.41107465   -1.38129215    0.36571371     -9.21058742   -2.16759354   -9.13537488     26.35078150  -12.93143848    4.28440595
    1   -3.35714091   -1.97701937    1.25398739     -5.38222266   -4.37546962    7.15529664      8.54213582   10.00371096   -0.23894342
    8    0.36211163   -1.41788363   -5.55261485     31.32390001  -28.04951150  -10.01181479      0.52812518   -0.99183191   -3.09634429
    1   -0.55700556   -1.63862361   -5.54651139    -28.74269009   -1.16307088    1.82038853    -27.09811142  -14.33692877  -34.39709875
    1    0.72669936   -2.21777136   -6.04259479     -0.62880240   27.05605896   15.95437873      0.74570498  -16.97269183    7.67647839
    8   -1.82519614   -0.68003502    5.67967131    -26.55376080   17.84628275   45.49423056     -4.65082262    0.44574514   -2.50136103
    1   -1.97547084   -1.44440341    5.14385897      0.77174302  -35.78124529  -22.49505161     13.10763637   -9.68926840   -4.49737682
    1   -1.21239813   -0.18168599    5.18161023     26.52645630   15.54332299  -19.12309372    -12.78608993   24.31988867    3.40304892
    8   -5.09656203    5.98810710    1.18889081    -92.56057330   -0.52465372   -8.52506290      6.63517169    2.86747532   -4.39615620
    1   -4.28815899    5.96067620    1.65053692     53.31023692   -6.27661736  -22.70257088     -9.48797290   -3.72138734   20.23449371
    1   -5.02908421    5.96164961    0.20520020     41.41943340   -0.09159467   20.47412765     -2.93945992   12.93280565   11.63059498
    8    1.82879082    3.36046442    2.85358278     38.02699672    7.42929620   20.47667620      1.52992945    7.10913734    0.22000995
    1    1.37925617    3.02773254    3.66089366     -5.09494095    1.56394739   -7.01038595      6.23801182   11.47405277    3.97428393
    1    1.18559756    3.33689528    2.18047480    -29.75754759   -8.40772210  -17.51739579     29.36355049   -5.20857138    8.55379061
    8   -3.45810481    4.73230153    3.29612354     13.49848882  -70.05088697    2.68885907      5.29611527   -0.94473577    0.55737354
    1   -2.82807850    4.65246734    2.59215190     17.43500170   28.56869396  -28.92302057     20.45467132   11.26205506   15.99703725
    1   -3.39976206    3.76537030    3.52044307    -28.75307132   33.00866985   14.35342578      8.63674909   -1.15893752  -12.78133528
    8   -5.30450377   -4.57611521    1.89949747      0.52637148  -35.76101536   24.88298662      6.12439702    0.40798391   -1.20998424
    1   -4.73576719   -4.59039283    2.72144862    -14.12078919    8.29609289  -24.52786922     -5.86053160   15.36902428   -6.49155480
    1   -5.24233762   -3.70206381    1.56961894     13.86810628   34.21095055    0.11714361      3.48149445    1.07135933   18.03693962
    8   -3.44941880    3.43493187   -1.08547035    -37.09342547   19.34356570   25.34879381     -0.38521510    2.69606469    5.17727218
    1   -4.24496688    3.96398513   -1.36472602     30.21004564  -12.86026402    0.31671511     23.02568509   24.92885849   -2.74769226
    1   -3.00128103    3.21129316   -1.89071464      5.85110399   -3.57254351  -23.22649262     14.34249302   16.25605069    5.83070568
    8    3.09649596   -4.59013960    0.79328365      7.45855015   18.88911400    1.53768878     -1.33008602    1.89123024   -4.26286842
    1    2.91832649   -4.25331189    1.68499287      3.70080195    0.58906594   -8.09090053     -0.53770655   19.35186858  -10.44702310
    1    3.62747324   -3.87358725    0.38116538     -9.25840590  -14.84653555   11.48496066      6.11121324    4.65761760   -8.11627277
    8   -4.06502536   -4.70717876    4.34336500    -16.22418967   13.87313065    6.74796202      3.07039677   -2.35409516   -0.14343921
    1   -4.16104643   -5.62136056    4.54686526     14.84142272  -43.30717115   -6.36810716     -4.00972873  -18.39878672    8.85512314
    1   -4.67682914   -4.36726829    5.00193944     -5.42870785   19.74753871    0.73076743     -5.39532221   -6.27920283    8.96706632
    8   -0.84892512   -5.46173665    2.06617410     17.18344529  -20.74925030   10.07168558      3.55624666   -4.16239105   -4.85386450
    1   -0.15722325   -6.14592682    1.98922815     -1.59540433    9.96325041  -17.07230403    -11.96867378   28.62933545   25.18258410
    1   -1.07623199   -5.58033874    2.98558817    -12.13794444    7.03504045    5.21837250     20.38364477    4.67307756   19.48133122
    8   -6.72847289    7.01881868    2.91276587     -8.82943505    4.64903851   12.24128685     -2.86262293    0.01268279   -0.31840646
    1   -5.88074096   -6.91918161    3.10470762      7.10612288    9.61153912   -0.05425330      4.43527251   17.75149057   10.52548518
    1   -6.46233067    6.37291167    2.24261896      7.42594023   -4.07811600   -7.49225937      0.62923630   11.19188636   -8.47025334
    8   -7.11699613   -0.31075084    5.62276122     22.95515409   14.66096435   14.97654855      0.67744477    0.87826974   -2.39311364
    1   -6.28245681   -0.10643883    5.15888610    -13.76124796   -9.66846459   -1.51080329     -6.95196203   14.28042430   16.72807065
    1   -6.85761362   -0.16037046    6.55109282    -11.37974305   -4.16853663  -12.35812709    -11.45026177   21.09376001   23.01243921
    8    5.67371716   -6.44418245   -7.13567209    -46.19830083   28.51484150   32.33599014      0.87717329   -0.56467478    2.70452431
    1    6.47674587   -6.88158649    6.97763788     36.96367954  -13.66740891  -11.61958191    -37.90009084   -9.42540276   -7.76455122
    1    5.80638212   -6.15734867   -6.19467510      4.79048208  -11.49215795  -18.58059734      8.49204092   11.30278106   -0.42702738
    8    6.96168757    3.70527179   -5.10826357    -49.02167768   40.99815343   36.04963475     -0.70775415    2.55553180    2.52379715
    1    6.56860590    4.13989408   -4.31016771     28.25839946  -20.60141924  -11.80779585      9.32906322   -1.71888161   17.14232385
    1    6.31983000    4.08739403   -5.74146589     14.77553437  -14.78940067  -16.09550176     -6.24360247   -0.56318325   30.07179839
    8    1.92361421   -1.37578003   -0.85741770     43.58343260    1.18064704   27.93397050      7.72837509   -1.61898363   -1.52620768
    1    2.06553422   -2.08262825   -1.47127757     -2.10538807  -16.57503751  -19.19362027      2.16466779   -4.77090629  -22.44177345
    1    2.80709119   -1.44082711   -0.36389047    -31.79081988   13.78915630   -9.13164272      0.12270075  -21.82739629  -10.27549308
    8   -6.04067428   -4.56117473   -1.26264072     11.65314693  -13.24442275  -13.20963728     -0.57892778    1.78240886    5.64855026
    1   -5.21233391   -5.08460605   -1.23356708     -9.60214939    3.68174760    2.73408495     31.00913062   -5.69818377  -14.54015718
    1   -5.99324438   -4.04777138   -0.45914556      1.49831441    5.74010807    6.11758715      1.51850072  -11.41088065   -6.63805339
    8    3.59967571    4.04391838   -4.43054517     -0.20982086   -9.56192934   29.43397739     -0.76524542    3.46012131   -3.80771352
    1    3.62412240    3.21203536   -4.94465885      7.86345173    6.28342154  -12.62639088     -1.17086313   20.07067188  -16.66415211
    1    4.01669263    4.69031892   -5.02008865      4.44406819   -1.21736576  -14.32145482      9.38184618   17.95906946   -5.41057407
    8   -3.70362051   -5.42665524   -4.07905257     26.99465020   25.08699790   17.06177651     -0.51498231   -3.01958626    1.71414904
    1   -3.07205030   -4.75754095   -4.37497057     -8.35371380    0.75289211  -25.85650812      2.21391463   -2.10756765  -22.80461009
    1   -3.37046998   -5.43510714   -3.17655044    -17.07955893  -22.83477120   15.55655582    -27.14070161  -14.91324983    6.04588720
    8   -3.87037128    6.86758108    4.67177174      2.12515272   15.71803325   24.64709338      0.52557159   -5.79210328    2.00181535
    1   -3.83829169    6.09443710    4.08446121      2.76736826  -11.61180898   -8.53252519    -16.16651080    4.65297005    7.47986174
    1   -3.20048453    6.62043248    5.33992958     -8.63465482    6.83726671   -8.14687527     -0.20217898   -2.16263517   -5.37708267
    8    0.01269370    6.71669225   -2.04991318      1.04534636    4.95602737   -0.51344974      4.44806743   -1.53419224    2.03210900
    1    0.21909143    6.12691435   -1.29639679     -4.04976019   -4.18515223  -10.17716668     25.53150028   11.51027396   -2.68873016
    1    0.10162976    6.13593366   -2.82545084      2.34027752   -1.47446304    8.76959346    -19.48728103    2.91129039  -19.88679049
    8   -2.13356730    2.84691230    5.53880544     33.79241713  -43.38076539  -46.86866212     -4.19894673    2.82760448   -4.03946464
    1   -2.46034789    3.47694083    6.14923807    -27.66561751   24.19287491   23.68882194    -14.31432532  -12.72181422   16.77302981
    1   -2.84564730    2.62890404    4.90608311     -5.66452935   10.55549385   17.26230016     -1.49697230  -22.51551239    2.92469113
    8    7.14493872    1.14772412   -4.03648219    -37.56952323   28.34703427   -0.92506286      4.28130740   -0.52126028   -1.09420511
    1    6.84388031    2.09818452   -4.07857329     20.43555394  -29.41981527   -6.57417613    -10.17271268  -13.64477948  -14.26422752
    1    6.40647575    0.70510878   -4.53860786     25.90359063   -0.31107258    5.83748064    -17.24872038   28.37373412   20.84843824
    8   -5.56257542    2.97921583    6.34660861    -47.66845317   38.22923769   -8.78771386      4.18561510    0.25155596    1.85119844
    1   -4.86493798    2.37113846    6.34028549     38.10950558  -27.45900761   14.51273498     -0.24720525   -2.32468121   -7.82504134
    1   -5.41818354    3.55707962    7.11801569      8.25290027   -9.64333990   -4.13788774    -50.80989348   21.42881115  -13.16467946
    8    5.28901093   -4.12633488    3.76143687     15.16425365   -6.62964296  -46.42656124      8.46866131   -0.96977267    0.93307182
    1    5.69211465   -4.44983169    2.90072822    -12.97545294    6.76153270   29.23494334      2.53019439  -33.00678723  -18.51394504
    1    5.19966959   -3.18552395    3.55193999      1.35177768   12.67214599    9.97583273     16.14469916    3.02594661   -0.85238084
    8   -5.70867011    7.06156931   -4.01444505    -11.46662131   54.90164831    8.58809245     -3.62942377   -3.88416011    1.26574352
    1   -5.05355102   -6.51964479   -3.96815338     -5.03017325  -29.00662223   -4.70767791     26.59373021    3.78520599  -12.24569131
    1   -6.55443333   -6.72421571   -4.06624713     21.17047930  -30.41643250   -7.24776170     14.23000566   26.71746024   11.72207355
    8    4.26665212   -1.59406907    0.42193047     -2.69523739   -3.00616894   39.70300632      5.55339241    0.42980126    1.52455946
    1    5.20811587   -1.63714268    0.23400113     11.70374334   -0.46960820  -17.32129888      2.14938777   15.96671822   26.85618126
    1    4.31604293   -1.50633093    1.40803921    -10.89882977   -1.69981554  -23.21751733     14.51446469   -4.04503028    3.68888732
    8    6.31920332   -4.38566528    1.27722180    -15.43146303  -29.80567225    9.01586676     -4.05407159    6.48642809    2.28912834
    1    6.44625107   -3.50984636    0.94262085     12.81261056   24.34328297   -8.57166013     12.09474975    9.98485458  -31.02520540
    1   -7.13184255   -4.66360376    1.56825084      8.24860154    4.36625183   -3.25156576      4.40454362   18.38893365  -14.00112053
    8   -3.89343660   -1.68332855   -3.95666141     18.63840640   20.07741082   18.94485222      2.22510301   -2.74782744    0.13767622
    1   -4.52407767   -2.24103022   -4.38550311    -19.70031555   -9.68949484  -18.71850313    -26.37198288    1.67729854   -0.97693132
    1   -4.10955336   -0.78980014   -4.27969637      1.02810565   -8.98682702   -0.59389728    -11.86227754    3.85042157   14.35134312
    8   -4.90684664   -2.08691864   -6.71380808      4.18466960  -12.12759175  -17.53530823     -5.05508934   -1.32363076   -3.67541456
    1   -4.09415121   -2.59922971   -6.88141993     -2.42200572    9.97602307   11.05541183    -24.74012414   -0.46570035  -14.77837756
    1   -5.56323204   -2.62816839    7.13933652      2.87825123    5.67454307    3.91588421    -19.43935778  -10.40416009    4.82111164
    8    1.38025420    6.02458540    3.62604619     -3.26005807   -4.85660591   30.86506698      3.95854480   -6.22832280    3.87459730
    1    1.72593611    5.23192392    3.22859118      4.05013045  -26.97125641    1.72839633     17.15538993    5.84510367  -40.95920482
    1    1.71515126    6.65870521    3.02359593      6.68871095   33.66685392  -28.97108477     -9.66891255   -7.94798459   13.74502042
    8   -2.43139095    4.18061967   -6.41248379     14.57236252  -10.26710946   12.57306491      0.97093683    1.79262241   -6.60552096
    1   -2.00917870    3.57145337   -5.77452098      8.30251460    5.33966776  -16.53873736     14.04278497    4.72381669   11.25120270
    1   -3.23487317    4.38571204   -5.94966278    -26.31829080   12.05608241    2.16564166      5.26744220    4.47048298  -22.82794982
    8    3.55781545    2.67416492   -1.91858790     42.14757010   -8.93139266   -0.60561366      2.58171583   -1.49281797    1.45425242
    1    2.64850735    2.60770247   -1.75281612    -48.39101266   -9.31040266   18.26209972     20.31960138   -3.15701795   -6.56402038
    1    3.54414136    3.33950249   -2.59524064     11.46556170   18.05654717  -20.58948864     -1.33428894   13.51377563   14.34571744
    8   -1.68030016   -3.24134857   -3.18298964     16.42660216  -28.86438371  -10.72324816     -5.23951343   -6.47046875    2.84415749
    1   -1.42769786   -2.95958078   -2.31372136      9.49770633    5.87858338   22.80816126     10.96171606   13.95121076    6.02364728
    1   -2.29377966   -2.57285774   -3.43057651    -26.52092906   23.04952281  -13.88209769    -21.96321594   18.64737548    9.98665220
    8    6.56861829    4.76594689   -1.77862941     31.93080725    8.01599738  -27.84653029      0.07200321   -1.49673074    3.57055649
    1    5.84646384    5.11067965   -2.33676504    -10.58587708   -3.59509455   22.62271606     20.23033807   -5.07418403  -16.93000418
    1    6.17564706    4.17422207   -1.12754053    -17.54309305   -1.43843893    1.06892767      7.89157229   28.49665013    3.02318630
    8    3.97857944    0.20664909   -3.09439320    -22.72379499   18.25288823   15.92270569     -4.85599669    0.40329854    3.04706794
    1    3.99394180    1.07430396   -2.64265402     18.05461785   -2.13392576   -4.58777120      6.05342413  -14.45463756  -38.98977636
    1    3.02245239    0.05871865   -3.01492477      2.96851222  -15.86832812  -12.10408018     -7.15735066  -20.64945091   11.48206886
    8    3.71181937   -6.78156963   -4.74476477    -26.28260698   32.56721621  -25.11362128     -0.23726480    0.44005990    2.60805122
    1    2.97415779   -7.01052598   -5.36689421     12.86865153   -6.52056291   14.29265945      5.95289929    2.88910259    0.66706660
    1    3.71892719   -5.78269398   -4.82659960      2.73799574  -28.04862283    5.89516881    -23.38983263   -7.08987962  -25.19394598
    8   -1.88479981    1.93858782   -2.93914573     46.36921055   14.65223872   -4.15424880     -1.94309069    0.44687220    2.32609124
    1   -1.14842975    2.02924217   -3.60838687    -20.42591674    0.37464104   13.31394420    -15.89815319    8.46503749  -34.71680233
    1   -2.60303572    1.67647342   -3.49916791    -28.87441165  -10.35759642  -15.29177255     24.71307923    3.39845286   -8.97532137
    8    4.38913722    4.46263581    5.03882871    -14.95887629   66.53055773  -10.41585592     -2.07843158   -4.29351101   -1.73300643
    1    4.49598619    5.37223141    4.61333864    -16.65379805  -32.00019836   14.31727091     28.82675277    0.08320803   -7.41081428
    1    5.25506592    4.15199529    4.88032173     34.30446449  -35.79937140   -3.26597446     -6.38783176   35.64012596   24.69707348
    8    5.32328395   -0.30899012   -5.38462119    -29.02678314  -36.34575314   51.28637557     -2.10711105    2.17440473    0.22008876
    1    4.73644386   -0.28715498   -4.55802565     22.31315888    9.32296133  -32.86123135     14.40383060  -15.25231541   -9.64172148
    1    5.54474314   -1.27951889   -5.39521772      1.85282859   26.32560761  -15.68449036    -13.12506556  -10.80560571   -9.53949529
    8   -2.26921756   -2.86490720    4.25803049     -5.97788098  -14.23389700  -34.59962556      0.64334692   -3.52706618   -1.08030646
    1   -2.01431001   -2.80132122    3.28915585     -4.82484433   -1.69654657   25.25476166     -2.35357422    4.00854198    1.61302134
    1   -2.88234272   -3.66341741    4.21970236     13.43642934   23.95340524   11.92027067      3.39353975    3.54971638   15.28202050
    8   -0.69739021   -1.96172609   -0.75967919    -24.38614632   27.91916675    5.54947714     -2.32407268    2.40275351    0.47619049
    1   -1.06153611   -1.04241110   -0.67427432      0.77167694  -18.49288199   -4.06085610     -3.87647335   22.84142511   14.35854253
    1    0.24048727   -1.78766078   -0.62766012     12.92681699   -4.33637646    0.80709598    -15.33982656   28.34743766    5.12819854
    8    1.22774652   -5.21095827   -1.77572953    -18.88594609  -28.12043770    2.59905689      0.36349014    1.35536271   -1.04645963
    1    0.77722428   -6.08056588   -1.98610414     12.00287783   19.65785480    0.16579277    -13.16985775    6.62189725  -13.08285861
    1    1.16174398   -5.22087363   -0.81357720      3.74980324    5.77732200   -0.22789346     13.40501988   -0.02554748   36.89875085
    8    2.27577406    0.44487196    5.57624764     -9.96831842   26.62147453   56.37103396     -4.80294867   -0.53017096   -0.01599099
    1    3.18840850    0.57759065    5.22349777     -7.91630000  -12.60087472  -13.42135421    -27.43340202    3.81476755   -1.67230575
    1    1.74407248    0.01948412    4.92687634      4.36496323  -14.65875282  -39.37238190      1.60629052   -1.87886201  -16.44746664
    8    6.64875846    2.96950361    4.57937949    -10.44506684   -6.11720420  -25.31655068     -4.18769287   -1.48769839    1.03377085
    1   -6.96516898    3.13346248    5.22241678     11.31785244  -10.93412818  -11.24119225    -16.11419881    5.51766025    5.28455192
    1    7.05742657    2.58330521    3.76059300      2.93099359   16.81420596   38.01151170    -11.73349784    3.49150859   -9.46086497
    8    0.25642909   -0.01894019    3.39441526     -6.17758899   10.10809433  -23.08163957      0.73248874    1.99635475  -10.49342598
    1   -0.51496343   -0.43280091    2.98076336      9.56449913    0.12224721    5.57416828     -1.41922991   -1.82956022   13.73752997
    1    0.63323647    0.48717516    2.62185117     -2.58682056  -12.76349803   17.74589728     43.26826349  -20.21018159    4.18648224
    8   -7.14580362    0.48963770   -1.27781965      8.54838044   31.57227825   23.25683537      4.37505204    5.28533803    4.81910327
    1    7.04706337    1.39791811   -0.85346988     -2.82306271  -39.96090020  -21.44275308     -2.95346435  -10.74811633    5.10191431
    1    7.09706370    0.66021053   -2.22340906     -0.64461491    5.32705830   -9.12620459      3.68006010  -35.47514500  -10.45277574
    8    1.40430974    0.98866889   -6.29571926     30.05493235   65.73947020  -42.37500119     -4.88083446   -5.04985666   -3.38228826
    1    1.75753597    0.85674583    7.09876365    -16.38098591  -19.97476710   35.63055437     -0.27683590    0.50800178   16.62191774
    1    1.21799494    0.14873386   -5.94376769     -8.43119511  -54.47071696   -1.01380675     21.50859456    4.22278363  -21.69082730
    8   -5.25537189    5.76996975   -1.66401539     -5.89122739   -6.87888559  -26.78528000      6.28420627   -0.39621829   -5.39699785
    1   -5.36144921    6.07808308   -2.58631505     17.84518941   10.18553060    0.30969339      4.74959161   14.00170814   14.57360375
    1   -6.13754233    5.39451241   -1.60040100    -19.26287482  -12.02586921   23.72507529      6.22094745  -12.30639283  -45.86169649
    8    1.74539931   -6.84219410    1.46056529     41.84697369   -1.66090538  -36.49811859     -4.74468865    0.08651450   -0.68685702
    1    2.08360494    6.86647591    0.74383397    -18.22744066   17.55866732   29.67466923    -10.92684674  -30.54448133   17.04099369
    1    2.42432216   -6.11425570    1.38908624    -24.04101067  -13.66172906   -0.34705002    -15.40176987    1.89139494   20.74507006
    8   -6.22799864   -4.22675991    6.37704668     23.14851919   15.36717404    7.44562708     -1.38256605    8.13944102    6.79822537
    1   -5.64681320   -4.89120205    6.83071419    -23.86743150   -2.82272000   -8.56899651      1.92416013   -7.33364846  -21.70194736
    1   -7.01120014   -4.69625963    6.06200399      6.45631585  -15.22963274    6.43732846     15.80501132  -19.82717771   -4.04619333
    8   -6.52423567   -3.25688785   -3.76247576      5.46553029  -18.25980607   80.95384902     -7.23540163   -2.47836755    0.40818770
    1   -7.14820655   -2.79933253   -3.14339648     -1.91671485   10.44691838  -28.26817899     -7.42059037   -5.74799413  -12.80675414
    1   -6.11811786   -3.83628465   -3.04541533     -2.72718405   12.47124911  -41.76762955      0.08179187   26.79024234    4.85128839
    8   -4.59875905   -0.68712349    4.03387862      2.01536721   13.44428554  -23.43820751     -6.94731013   10.08023385    7.63631314
    1   -3.87007616   -0.79672782    4.63000061      9.65048851   -6.94728905   18.21434548     -8.78760072    4.08835802   20.19111476
    1   -4.18192116   -0.90051286    3.17816915    -11.22009520  -11.64145269    0.23836075      8.78790162   13.26133239    8.31936188
    8    3.59591130   -4.12612166   -5.11744783     -9.50404159  -19.48830284   35.53959968      1.41744327   -1.12884720   -6.50278956
    1    2.88475895   -3.86846044   -5.73223290     15.54223151   10.61395235  -15.65373398      0.29954419   -0.26949599  -11.31496733
    1    4.43952465   -3.83208934   -5.47616220     -2.19732402   15.45154224  -20.81130566     -7.35895294    9.76470851   -4.77435602
    8    7.04202631   -1.68994021    0.36891477    -11.46803123   -6.21502558    4.30860076     -4.11580572   -3.84265760    0.91328193