 # Historico de coordenadas
ANIMSTEPS    9
CRYSTAL
PRIMVEC    1
      18.85044943       0.00000000       0.00000000
       0.00000000      18.85044943       0.00000000
       0.00000000       0.00000000      18.85044943
PRIMCOORD    1
  300    1
    8    5.28762360   -6.72439549    0.87309983   -1.03365861   -1.01821396   -0.26380608    1.47472148
    1    4.54748436   -6.13422418    1.23483383    0.42152889    1.21516390   -0.80166855    1.51557988
    1    4.81927650   -7.32014662    1.55585582    0.75345245   -1.57136926   -0.23948681    1.75904687
    8    5.31279511   -0.10845739   -4.21025413   14.99017058  247.34286304   90.74404539  263.88952022
    1    5.49660645    5.60833956   -2.07258765   -6.87599652 -219.65885339  -80.95618936  234.20332149
    1    5.34027228    1.23505545   -4.39772108    1.56815301  -11.65855643    1.01766017   11.80748382
    8    2.32544644    1.10867906   -7.55611467    0.39575107   -0.05290466   -0.84642718    0.93587220
    1    2.53379747    1.42776679   -8.48691714   -0.99008762    0.52014040   -0.42655434    1.19698293
    1    3.28653273    0.82687285   -7.54811008    0.30955055   -0.58296925    1.21501831    1.38273070
    8   -3.16846333    4.07928146    5.75578867   -0.46506309   -1.42589785    0.19317453    1.51221187
    1   -2.63161302    3.23828028    5.75851597    1.13907486    0.25111164    0.86571149    1.45258561
    1   -3.71995461    3.51538272    5.13118482   -0.48992905    1.27487774   -0.47342024    1.44550007
    8   -2.48430464   -7.99097165   -3.94292321    0.33853534    1.35710687   -0.62845764    1.53339631
    1   -1.98316960   -7.13415148   -3.77046393    0.71777866   -0.38767046    1.27991412    1.51778613
    1   -2.81586540   -7.38243429   -4.67335751   -1.06956722   -0.89851334   -0.64560774    1.53886635
    8    0.34460795   -3.59573557   -6.96791906   -0.89935501    1.30744943   -0.86366924    1.80670640
    1   -0.07161090   -3.74015960   -7.86604393    0.04426954   -1.97593456   -0.32745694    2.00337346
    1    0.05836840   -2.71037828   -7.35326037    0.35063320    0.75084130    1.18942538    1.44963410
    8    3.44872328   -1.48090520    7.26137565   -1.86106094    0.24075301    0.10896986    1.87972984
    1    2.64129007   -2.07012685    7.28373698    0.49675843   -1.04878508   -0.15015602    1.17015637
    1    2.64746750   -0.82195522    7.25014218    1.12704209    0.99241092   -0.46215785    1.57120755
    8   -6.35184518   -0.03319629    4.14943759   -1.29642508    0.26805064    0.80453525    1.54914367
    1   -7.12691267    0.54877919    4.43992715    0.24711399    0.91751038   -0.82224328    1.25657257
    1   -6.77954318   -0.59141445    4.88108634    1.01226187   -1.07909666   -0.14078447    1.48625165
    8    0.65579081    5.47525472    2.23705210   -8.30371175  -10.11492002   -0.00157344   13.08675813
    1   -0.34273272    5.40400958    1.88823394   -5.69582352   -4.48036550    3.18480673    7.91574851
    1   -0.05784122    5.46323895    1.49795048    1.34734884   -0.00610137   -0.14994748    1.35568078
    8   -3.49893474    5.56902360   -5.16753391    0.13582094    1.39445324   -0.62996121    1.53616350
    1   -4.17114560    6.30852511   -5.26612490   -1.32667992   -0.69139214    0.46353804    1.56619609
    1   -2.90997941    6.34606663   -5.42413706    1.26200699   -0.72032700    0.12943443    1.45886459
    8   -5.06660240    0.90149696    1.36060831   -0.30263702   -0.85447066    2.30026836    2.47243682
    1   -5.56554496    0.16019123    1.83864196   -0.88587860   -0.34316645   -1.23122726    1.55514137
    1   -4.62977312    0.77722024    2.27658204    0.95193062    1.03681709   -0.76092537    1.60005281
    8    0.40397453   -7.20392376   -7.30236725   -1.41488531   -0.08551475    0.07605993    1.41950637
    1   -0.35034950   -6.54269283   -7.24807361    0.70256462    1.26472763    0.11822820    1.45158910
    1   -0.35392734   -7.86452594   -7.28414354    0.69297082   -1.23417289   -0.07270669    1.41727822
    8   -4.97526897    1.69256986    7.07764303    1.12818845   -5.94187363   -3.76222592    7.12271123
    1   -4.63961148    0.82042812    6.39985086   -0.42450557  -10.21114430    5.06594126   11.40663990
    1   -5.31967259    1.86483516    6.15172118   -0.41772542    0.78815961    0.27997720    0.93492103
    8   -8.47814712   -4.15303790   -2.77396518    0.13029416   -1.36194769    0.58480456    1.48790942
    1   -9.04158853   -4.97281170   -2.61015968   -1.35426016    0.49909863   -0.66505716    1.58915734
    1   -7.83791730   -4.77277823   -2.30766485    1.23245529    0.87482833    0.03848405    1.51187026
    8   -3.78697846   -0.05253643   -5.92737267   -0.64330645    1.42060402    0.12998441    1.56488176
    1   -4.60591017    0.53296217   -5.81743943   -1.04290628   -1.14464174    0.41047999    1.60198378
    1   -3.48636909    0.88656000   -6.14072832    1.51098592   -0.29930294   -0.37258084    1.58476408
    8   -8.31136238   -0.04850575   -8.45458962   -1.16296625    0.33568375   -0.49239065    1.30676036
    1   -8.83719522    0.79092750   -8.63420376    0.89988065    1.06132917    0.41478846    1.45198287
    1   -9.16117660   -0.43280856   -8.83117647    0.24137311   -1.37732464    0.01164989    1.39836328
    8    1.07371807   -4.06671670    6.57836557    0.58447962    1.93697091   -7.00664118    7.29290706
    1    0.89714918   -4.71989629    6.98903013   -1.72584331   -5.65124183    9.58769811   11.26228327
    1    0.82427978   -5.08582694    6.28642393    1.54749672    7.93666907   -1.38880928    8.20452639
    8    7.93333023    4.08726376    3.14464256   -0.79749355   -0.36839184   -2.71478128    2.85337448
    1    8.34486631    3.34326423    2.60348842    0.88236863   -0.85783804    1.23588925    1.74409940
    1    7.74196284    4.27064019    2.14731330   -0.35724661    1.23112588    1.00226780    1.62721750
    8   -3.00448899    4.96977306   -1.49956347   -2.10966420   -1.44336460   -6.12897800    6.64065928
    1   -2.74797090    5.41737173   -0.81721098    1.87717853    3.67795062    5.56622212    6.93065284
    1   -2.83639042    4.04193653   -1.30364642    0.08132213   -2.15485674    0.48819353    2.21096218
    8    1.04080542    0.23690765    5.82206218   -0.48102345    0.57510248   -1.33976351    1.53528261
    1    1.22851783    0.19670623    4.84610197    1.10409710    0.73266989    0.08252141    1.32764655
    1    0.18281826   -0.22773976    5.56202174   -0.65713663    0.05493899    1.63640737    1.76427773
    8    4.17062271    6.34818725    1.80719841   12.45067931  -32.57023435   -4.29510030   35.13242758
    1    4.62152156    4.71432360    1.74026076  -11.40859696   29.14828260    2.57265246   31.40695789
    1    4.92723792    6.22802620    1.03997218   -1.29858132    3.18176335   -0.37728099    3.45720587
    8   -8.75365258    2.72138889    0.45554349   12.88469804    5.83997386   -4.31676615   14.79037553
    1   -7.50950188    2.64710830    0.35433879  -10.44846649   -0.37588068    0.89381059   10.49336151
    1   -8.51583416    3.71209520   -0.11607070   -2.26135598   -5.74016243    3.38966846    7.03939258
    8    1.78635026   -1.94728221   -6.54996911   -0.71963267    0.39141558   -0.40473898    0.91372369
    1    1.26878411   -1.49681281   -7.28199086    0.86707876    0.64491145   -0.42368771    1.16070997
    1    0.91839915   -2.19792381   -6.10539453    0.30479764   -1.06242306    0.89881896    1.42461219
    8    0.40279501   -7.60737375    2.25620205   -1.34175439    0.10514100   -0.17383306    1.35704731
    1   -0.35867012   -8.18303106    2.58272899    0.91242518   -1.27829304    0.36330497    1.61199979
    1   -0.33951809   -6.93011973    2.33269990    0.71046127    1.19976231   -0.34736826    1.43695843
    8   -2.24077230   -8.82133702   -9.33764165   -0.45655990    1.50356397    0.41274356    1.62465651
    1   -3.02422766   -8.25238167    9.24559746   -0.93065631   -1.08611576   -0.72463000    1.60338930
    1   -1.94763055   -7.90656765   -9.04362290    1.31976386   -0.33936362    0.39618628    1.41912222
    8   -7.73690611    7.94772640    1.97463799    0.56328645   -1.40773073   -0.15150534    1.52379503
    1   -8.02979608    7.01951952    1.72085097   -1.46923319    0.29841862   -0.25723735    1.52114131
    1   -6.89677058    7.40045620    2.08664546    0.93116410    1.15352810    0.50574844    1.56635729
    8   -5.38957636    3.37245190    0.10758262 -150.17829024 -103.08649048   73.34002875  196.36471983
    1   -6.08555146    3.24036865    1.05967381    6.75660875    3.11510880   -4.61590192    8.75569616
    1   -9.28821451    0.64564036    1.95429273  143.72241524  100.15158202  -68.77853080  188.19393805
    8   -6.80720117    4.33257344    5.08418676    0.50266904   -1.00811127   -0.19117731    1.14259059
    1   -7.06715434    3.36402399    5.11687129   -1.23821549    0.10495774    0.00390703    1.24266206
    1   -5.87471151    4.00189763    5.26494102    0.67080424    1.23375204    0.27523432    1.43104030
    8    3.28408316   -6.83770476   -6.05989934   -0.27565175    0.91470594    1.20242420    1.53573916
    1    3.35108390   -6.11062562   -5.36050477    1.36047676    0.12182265   -0.73572578    1.55146066
    1    2.48126078   -6.94657231   -5.47375645   -0.94736740   -1.41727989   -0.78422993    1.87648711
    8    4.91041420    2.97449427    3.57710045   -0.24613306    2.25857633   -1.17550160    2.55803685
    1    4.24625223    3.78226228    3.73887769    0.07434902   -1.69289494    1.09713591    2.01869470
    1    5.63433429    3.63921188    3.80945883    0.47659701    0.41626004    0.70153118    0.94475559
    8    2.82263092   -3.27900405    2.84751696   -1.71511141   -2.83155601    0.71254716    3.38630182
    1    3.50497066   -3.93687990    3.14655063    1.20815774    0.70363454   -0.05238424    1.39910357
    1    2.15112253   -4.02924626    2.80758685   -0.59751767    0.65491924   -0.51983112    1.02770179
    8    7.35159466    7.85951384    5.84277630    0.45316948    1.48736437   -0.76675637    1.73364665
    1    7.74948238    8.72931319    6.21263611   -1.44164327    0.46325233   -0.00131831    1.51424561
    1    8.33518555    7.66646311    5.96273635    0.17900766   -1.56890929   -0.41230076    1.63202696
    8    5.17635148    2.74872277    1.02208830  -38.16586390  -24.80077905  -12.61574829   47.23207505
    1    3.79322211    1.45611967    0.31578124   30.69013834   29.07550666   14.25313576   44.61414079
    1    4.72824828    3.42064527    1.77979408    2.47019298   -3.24917442   -0.67237652    4.13655387
    8   -4.63939885    0.26832831    6.45748881   -0.51027493   12.22120500   -1.59315992   12.33516886
    1   -4.53217570   -0.75774558    6.63840032    0.23814859    0.96656653   -0.39986844    1.07278160
    1   -5.06214826    0.45547727    7.38392437    0.05457092    2.03072799    0.44354756    2.07931926
    8    3.92749263    3.92918275    5.79473889   -2.01026369  -12.65922295   -5.10167920   13.79580431
    1    4.76336699    4.11209653    6.13704270    2.58864487    3.73085264   -0.48118773    4.56638646
    1    4.17365648    3.38164993    6.51735904   -1.05410169   -2.29447327    2.03614323    3.24370425
    8    2.55460037    5.86036067   -6.43122134   -3.19977115    1.46725469    5.37353573    6.42388184
    1    2.62974837    5.41212763   -5.39548512   -0.83092415    1.64983445    1.38540858    2.30905729
    1    1.45891011    5.81599838   -6.53154817    0.70272081    5.37653017    1.61586464    5.65790701
    8   -2.06433486    6.02841067    8.18103496    0.40597830   -1.63784987    0.42713704    1.74063684
    1   -2.59285217    5.17178440    8.12233738   -1.53163115    0.52525677   -0.28871930    1.64473326
    1   -1.33279752    5.33182718    8.14307851    0.92505834    0.99072082   -0.06334553    1.35693527
    8    7.61977945    1.20489564    5.72035759  -33.48138607   42.71155461  -31.91692849   62.96007016
    1    7.56505313    1.13051054    4.74651394    0.87358370   -2.23505890   -0.12571845    2.40300685
    1    6.22244172    2.61584055    4.52313935   35.45810058  -36.47752048   32.23789248   60.22597536
    8    5.84336415    1.05139016    8.16699936    1.46361790   -0.15270169    4.29316933    4.53836954
    1    6.11290475    1.68321312    8.98962008   -0.21426516    1.43889466   -0.69940035    1.61415249
    1    6.46757654    0.33686881    8.61534928   -1.08756073    0.91291829   -1.73345530    2.24077563
    8    0.83626094   -1.22802612    6.76136623   -0.30174974   -3.02544183    0.46158607    3.07529070
    1    1.02004774   -2.09651044    7.24444496    0.64548801    0.45636345    0.82774672    1.14459032
    1    0.24256114   -1.93625536    6.35064865   -0.63342322    0.96233883   -0.97887412    1.51179216
    8    9.40542153   -6.86883197   -6.55253183    0.48745689    0.16835989   -1.37096224    1.46475142
    1   -8.60816384   -6.96694651   -7.10158237    0.99108787   -0.39145694    1.06452072    1.50621979
    1    9.08027275   -6.65888472   -7.48285803   -1.48669465    0.23580313    0.30606940    1.53608026
    8   -8.39039016   -8.29055173    7.28579741    1.18887803   -0.62433750   -0.66647826    1.49914027
    1   -7.80189549   -9.10449718    7.20072243   -0.67822347   -0.91261590    0.96415972    1.49079134
    1   -7.71040727   -7.98378686    6.61447642   -0.49280219    1.34680559   -0.31090819    1.46744785
    8   -4.61960514   -5.75745057    5.77517917   -1.18890418   -0.10150591   -0.43605855    1.27041082
    1   -5.18441265   -6.56209692    5.54418633    1.02459693   -1.10421924    0.08883236    1.50896992
    1   -5.53296318   -5.34863999    5.62205963    0.33525874    1.36697727    0.26647954    1.43249315
    8    2.29801427    2.75144389    5.42003143   -1.16811604   -0.70027781   -0.32855790    1.40101191
    1    1.71780935    3.34936882    5.95749950   -2.00773762   -0.78434541    1.10384640    2.42171116
    1    2.72272023    3.62018489    5.34666820    4.54265884    0.38018006   -0.96731339    4.66004092
    8    2.42301812    0.36640011    0.33723776    0.81687103    2.51018031   -0.53200959    2.69282708
    1    2.40046418    1.35118869    0.18682202   -0.07482167    0.96478773   -0.79981543    1.25543553
    1    1.57686301    0.59170958    0.80010237   -1.29247780   -1.27990418    1.20989337    2.18460421
    8    1.66719674   -6.73710844   -0.33619193    0.15618524   -0.87074163   -1.20168818    1.49219278
    1    1.21302483   -7.56675778   -0.68604772   -0.31835316   -0.76044824    1.21505240    1.46832646
    1    1.52503800   -6.52071944   -1.31517408    0.55064353    1.37804894    0.09429101    1.48698284
    8    1.76414813    2.83158596   -5.26888166    4.64926615   22.75114310    2.24043716   23.32916087
    1    1.73149185    2.40614992   -5.42560208   -2.60858741  -21.76004447   -8.76214275   23.60252972
    1    1.29802873    3.63597476   -5.67864768    0.45320767   -1.03162691    0.03069628    1.12720607
    8    5.89508712    5.21414263    4.77042135    0.61410756   -0.53686455   -3.55508928    3.64746644
    1    6.08831952    6.17179019    4.59979466    0.14783361    1.03066171    1.56056013    1.87602405
    1    6.14016506    5.23720557    3.75429411    0.03346164   -0.92063515    1.65546373    1.89453132
    8    5.96478571    2.89227071   -0.71961060    1.35346432   -0.81334746   -0.95747983    1.84666385
    1    5.16931101    2.33837390   -0.46143372   -3.02104171    2.16973521    2.19884113    4.32080388
    1    6.19078316    2.15041655   -1.38532793    0.42423701    0.82151142   -0.63782648    1.12324560
    8   -3.81333557   -3.32167678   -5.43570861   -0.80660020    0.78509114    0.86743029    1.42105851
    1   -4.34121149   -2.47106841   -5.57594248    0.27519803    0.29471157   -1.62263468    1.67198450
    1   -4.09886218   -3.06670599   -4.50276547    0.66198387   -1.03354381    0.69152121    1.40877147
    8    3.69628181   -8.44820231    0.79999330   -2.07364712    0.45703156   -0.00999607    2.12343829
    1    3.17861561   -7.58381050    0.59857519    1.02730091    0.65331351   -0.81660193    1.46594830
    1    2.70323187   -8.55783455    1.05486484    0.43375081   -1.16457124    0.66316061    1.40859786
    8    4.00425166   -0.06628470   -0.16541192    2.09129756    2.13381686    0.64926500    3.05748997
    1    4.92595747    0.30542944    0.19952336   -1.63145744   -2.12462917   -1.52414227    3.08199807
    1    3.22834664    0.46804896   -0.53058984   -0.77180147   -0.93889070    0.64827865    1.37748266
    8    3.26527692    7.24885213   -4.91157867    0.11561790   -1.80482391    2.36687167    2.97873099
    1    3.60286620    8.20192232   -5.03726608   -1.49949421    0.99116459    0.13886951    1.80282414
    1    4.26547457    7.25788876   -5.15339727   -0.15781370   -1.78558554   -0.21431706    1.80531235
    8    7.33167728    7.89574144   -1.75563573    0.92896189   -0.27192633    0.01319794    0.96803321
    1    7.88847533    8.66369421   -1.42570049   -1.02535470    1.22543371    0.69682125    1.74315803
    1    8.24354606    7.63510780   -2.08690991   -0.17336428   -1.08367093   -0.76620413    1.33845680
    8   -3.06747428   -2.56931907    0.60062775   -0.85996443   -0.80500257    1.09852614    1.61069167
    1   -2.49095547   -3.21569522    1.11217374    1.51662488    0.11496896   -0.64481919    1.65201715
    1   -3.75830860   -2.98918426    1.20892341   -0.77298763    0.61012847   -0.47300829    1.09247584
    8   -1.16335247    0.84094632    5.22933052    0.54679321    0.79217120   -0.13086566    0.97141332
    1   -0.55311626    1.49657946    5.70106062    1.28877014   -1.02392205    1.20171349    2.03800397
    1   -1.40986060    1.73015668    4.84091482   -0.93095745   -0.21624600   -1.06707175    1.43251046
    8   -0.86838696    5.01386781    1.74496045    6.85021183    2.26177827   -1.15346641    7.30558196
    1   -1.30630370    4.76564252    0.83514869    0.16912529    1.01637891    0.05929859    1.03205900
    1   -1.03650732    3.96698620    1.93358927    1.32752519    2.10764770    0.60414890    2.56310317
    8    5.97950113    2.18850310   -4.07118233   -3.37204286   -0.34369147   -9.34483594    9.94056113
    1    6.24595130    1.55921271   -5.05160918   -0.77545130    4.61924666    7.24035836    8.62331454
    1    5.14980645    2.86059638   -4.25047397    2.50234315   -1.88589453    0.27909952    3.14582517
    8    4.10896513   -1.03661217    1.06974897    2.32811304   -0.99806568    3.31812732    4.17447174
    1    3.33285931   -1.01920310    1.57390621   -4.17137056   -2.00671922   -0.56400784    4.66319195
    1    4.28572315   -0.25006043    1.68087044    0.96278823   -0.49563824   -1.92921194    2.21234653
    8    6.07686166    2.39088868   -9.07520812   22.42389982   70.95750254   15.19720462   75.95231055
    1    6.93021742    4.98913121   -8.46878485  -23.87527141  -76.83202634  -17.82213555   82.40641584
    1    5.53400617    3.35333009   -8.79322493   -1.32731000  -16.44895367    3.60457550   16.89150062
    8    1.15947354    6.50710543   -6.31529649    0.65335249   -4.37702295   -0.68977308    4.47894924
    1    2.17671464    6.67079009   -6.11018263    1.49034389   -2.88244148   -1.72563139    3.67524115
    1    0.62964803    7.35799566   -6.02028050    1.07373224   -0.85194641   -0.45776696    1.44508276
    8    9.21479444    3.26325967   -2.99383444    0.43384176    0.25512554    1.53385394    1.61431584
    1    9.16736080    2.63047967   -2.21123650   -0.43121164   -1.34072176   -0.81836316    1.62886359
    1    9.37994129    3.89597275   -2.23091565    0.02030480    1.09441678   -0.88389656    1.40692342
    8    0.90655971    0.37963934    2.35181365   -0.03354170    0.67342945   -2.90337225    2.98063796
    1    0.54760162   -0.33499770    2.98615978   -2.09613462    0.59500956   -0.10612674    2.18153148
    1    1.63495121   -0.26759449    2.63492431    1.04046098    0.42217841   -0.67557592    1.31041844
    8    8.22402395   -4.50793711    3.62254853   -0.28825057   -0.18613215   -2.68741742    2.70923346
    1    8.19363212   -5.31883122    3.01731241    1.07904345   -0.26164102    0.52360042    1.22757818
    1    7.26142133   -4.45718022    3.32993451   -0.26778250    0.95852223    1.02193831    1.42647476
    8   -9.41886078    6.89856107   -6.50465899    0.93115387   -0.43316555   -0.93194202    1.38679337
    1   -9.09535857    6.80705851   -7.45329747   -1.09983491    0.48589971   -0.66685288    1.37492840
    1   -8.47992817    6.56169174   -6.37476429    0.12956813   -0.11095207    1.57267733    1.58190146
    8    2.54983856    5.51382212   -4.60603957    1.91137443    3.21597599   -4.40394211    5.77845653
    1    3.00012402    6.47438073   -4.38625191    1.84781629   -0.44349082   -2.69853808    3.30048738
    1    2.05930318    6.38099224   -4.45315951   -1.96687973   -0.14274732   -0.49525753    2.03329110
    8    6.01546815   -7.89152106   -1.00719090   -1.74466272    1.16268312    3.33693689    3.94091713
    1    5.65277188   -7.36111892   -0.15324451    1.54282326    1.38920800   -0.95871708    2.28677522
    1    5.35861989   -8.38444467   -0.41479331   -0.04370834   -1.49824152   -0.93924891    1.76884894
    8   -2.77025930    4.60975288    3.67144099   -0.24853969   -1.25055149   -1.51645282    1.98123198
    1   -2.11987840    4.71536605    2.91835398    1.62327042    1.40368809    0.62834489    2.23610474
    1   -3.30810708    4.28422661    2.88777691   -1.35664097   -0.08684138    0.55244407    1.46738223
    8    0.96791427   -9.27962718    5.05902345    9.78079049  106.10080010   40.40974853  113.95609426
    1    2.32547014    9.04532852    5.22575160  -18.85647804    7.94017197   -2.43890142   20.60488619
    1    0.72610660   -5.82725714    6.18626566    7.62938099 -118.73087359  -38.46437529  125.03893779
    8    4.36042781   -6.60421674   -3.97832261   -0.89142933    1.23331029   -0.51844271    1.60763284
    1    4.91296877   -6.00165586   -4.57067807    0.96260734   -0.71316944   -0.36948445    1.25369147
    1    3.81846017   -5.80178252   -3.70323228   -0.24196645   -0.18566337    0.93122070    0.97989318
    8    6.10508243   -0.42936669    1.21998418   -5.37691362    7.86628679   13.15861482   16.24619377
    1    6.17758240    0.54143938    0.92946635    0.39550903   -0.87207283   -0.10234626    0.96302293
    1    5.45963852   -0.17014574    2.21485215    5.95086126   -3.03381014   -7.41650367    9.98104606
    8    0.87849467   -0.06530870   -2.16678446   -0.73880856    0.39893196    0.41527764    0.93671784
    1    0.97481353    0.89748320   -1.95512973    1.11876270    0.65673599    0.06482793    1.29889753
    1   -0.05673170    0.15312999   -2.45597905   -0.60760113   -1.02602513   -0.53422753    1.30663910
    8   -1.43159510    7.73111729    2.84416414   -1.02653973    0.95010797   -0.52895562    1.49542068
    1   -1.50374729    8.51019178    2.22309738    1.20875503   -0.12888135   -0.80434314    1.45762376
    1   -2.28524331    8.11377747    3.19571745   -0.47485702   -0.89019055    1.32596981    1.66617056
    8   -5.10248270    1.99848954   -2.85313856    0.70015427   -0.29417928    1.29418747    1.50055945
    1   -4.62601317    1.29296775   -2.31435223   -0.02925085   -0.96871571   -0.75787329    1.23029983
    1   -4.96235912    2.47202211   -1.96226345   -0.77906804    1.31020807   -0.23657931    1.54258289
    8    3.00457989   -6.46011191    4.91526557   -0.24967244    1.01848234    0.46432712    1.14684012
    1    3.70391722   -5.99160553    5.44638002    1.53858490   -1.19189244    0.80473362    2.10605016
    1    2.78408652   -5.50217171    4.79963229   -1.12880237    0.51382447   -1.12782083    1.67636219
    8   -0.83308857    8.04016264    5.90684785    1.73673930    1.43822728   -0.16765651    2.26116559
    1   -0.65897650    8.84828648    5.31183574   -0.72781884   -0.13050135   -0.94524865    1.20010244
    1    0.07026538    8.47202984    6.13198712    0.00580026   -0.74245384    0.49701966    0.89347629
    8    7.09297992    0.29496038    5.86674422   -1.52287873   -5.51282082   -1.89304161    6.02444683
    1    6.37587275   -0.27944344    6.14892117   -1.96445288   -0.01218043    1.37301973    2.39674919
    1    7.55198578   -0.50886744    5.46263428    0.59858000    1.10727271    0.40429796    1.32204679
    8    3.40310120    4.91529602    1.44938962   22.24638243  -24.39754596   -3.29976585   33.18177564
    1    4.69439657    5.42421194    1.30489779  -17.41952173   -3.27319289    0.68415215   17.73757574
    1    3.65762784    3.28574596    1.32532191   -5.94638144   28.34130419    1.20086904   28.98328936
    8    1.48000934    2.85285892   -4.44566445   -3.69269147   -2.25767886    4.06749809    5.93949702
    1    1.08971179    3.21243004   -3.66559906   -0.65946823    1.30343682    2.01776647    2.49102939
    1    0.65163525    2.39555170   -4.87768563    2.10014403    0.92062344    0.39883628    2.32749282
    8    6.33942435   -0.91271754    0.35749192   -1.27582734   -3.35384111   -3.18487459    4.79785491
    1    6.90228393   -0.27377509    0.06780879    1.60197266    3.64690302   -0.45120741    4.00871628
    1    6.94505332   -1.38782430   -0.18831466    0.88672092   -2.98329524   -1.51115825    3.45975776
    8    3.49586440    5.61688422   -9.13788437    1.38694395    0.74618998   -3.32041067    3.67498844
    1    4.44453628    5.82760777   -8.91014084   -0.10254895   -0.75268745    1.04774623    1.29415101
    1    3.70079456    5.48130396    8.67614213   -0.72383185    0.10188012    1.57788563    1.73897532
    8    4.84711427    6.75396124    8.37101899   -2.76482407   -0.18730798    4.22681804    5.05423854
    1    5.39760531    6.59984636    9.19289751    1.67438765    0.25450087   -0.83670030    1.88902411
    1    4.12733280    6.92336016    9.16098256    0.22562375   -0.01388769   -2.95194305    2.96058553
    8   -0.31186929    0.84708499    0.96124658    2.85658114    0.60041138    1.52131543    3.29164856
    1    0.52673274    0.82176664    1.64738853   -1.60691336   -1.88142149    2.40295039    3.44907059
    1    0.19818667    0.59590404    0.14085000   -0.50676587   -0.57269735   -0.75323851    1.07338817
    8    6.03159458   -4.14900246    6.50469025   -1.67848024    0.41571895    0.08984495    1.73152831
    1    5.49273512   -3.42902985    6.05652565    1.00995941    0.67015306   -0.93788513    1.53256375
    1    5.19126868   -4.17122223    7.05680568    0.49454817   -0.80612151    1.07817567    1.43418010
    8   -0.55833272   -2.86877068   -0.05958667    1.57583493   -0.17290292    0.28706211    1.61107287
    1    0.09002863   -2.10185476   -0.02837666   -0.89141887    1.22522884   -0.15937074    1.52355254
    1    0.32665751   -3.35000303   -0.03043581   -0.43747519   -1.27051498   -0.09542326    1.34710744
    8    6.21537928    1.07689621   -3.67652580    1.23285718    1.87940853    0.82077275    2.39286046
    1    5.47585065    0.38908500   -3.79565164   -4.98810819   -6.94537412   -2.13598045    8.81373119
    1    5.77282415    0.35471748   -3.97040920   -4.31235809  -13.67323417   -7.02308580   15.96488331
    8    5.80737108    8.64287688    4.12318439    1.93974854   -1.95575042    2.17094049    3.50721638
    1    6.52953270    8.26332701    4.80062723    0.34560161    1.78941854   -0.42373162    1.87109798
    1    5.49583781    7.76879438    4.50187700   -1.65731022    0.06410227   -0.54174114    1.74478358
    8    8.69645638   -1.63830324    0.41137339   -0.29773810   -0.50754175    0.07538703    0.59323672
    1    8.46113388   -0.69486943    0.59356409   -0.22324335    0.68050243    0.16843735    0.73572569
    1    8.00943422   -2.11659029    0.99634454   -0.07457261   -0.05306547   -0.01544978    0.09282087
    8   -3.51381712   -4.15178888    8.64120018   -0.40360681   -1.30393060   -1.23471495    1.84055819
    1   -4.37365870   -4.66011734    8.50491145   -0.83724544    0.64136304    1.27817967    1.65712695
    1   -3.35458576   -4.70829031    7.80998192    1.26607034    0.57403362   -0.23101692    1.40919038
    8    1.16407792    6.12487019    2.11244451   13.53697173    9.97514870   -3.43284128   17.16209761
    1    2.31453554    6.15827432    1.99659544   -6.02734687    2.45489382    3.20961858    7.25651883
    1    2.14541334    5.96895477    1.88252291   -1.53051414   -5.02969046   -2.49489748    5.81934473
    8    5.02705412    5.75657564   -0.01065375   -1.28829028    3.02384249    2.99908876    4.44947734
    1    4.12946076    6.26527429   -0.09358185   -1.30093177   -1.09568849    0.40064983    1.74742010
    1    5.11660537    6.76769183   -0.21933072    1.39263614    0.45857776   -0.14678571    1.47352469
    8    3.41922884   -1.97442323    2.52353964    1.85422695    3.62106198   -2.41071741    4.72882711
    1    4.05958761   -1.99375539    1.67519014   -0.38883498    0.74621536   -0.27118481    0.88406516
    1    3.23611215   -0.99011110    2.52220062   -0.05962599   -0.67047577    1.86839368    1.98594762
    8   -5.04927451    5.62074204   -9.13782624    0.32545000    1.43954952    0.37258789    1.52218339
    1   -5.29608399    6.56226031   -9.39281207   -1.21374382   -0.28475449   -0.85263308    1.51037822
    1   -4.27403549    6.16893392   -8.79956221    1.02574023   -1.14669663    0.40442239    1.59079026
    8   -3.06467038   -4.62206092    3.06245338   -0.26023433   -0.00024989    1.47897502    1.50169540
    1   -3.47856377   -5.19097957    3.79084550   -0.50020642   -1.18294509   -0.86735206    1.54979519
    1   -2.93155324   -4.09752611    3.91300444    0.69840560    1.26644175   -0.56063066    1.55111309
    8    4.34863287    2.60880220    0.05396248   -3.03690453   -6.45948540   -1.26803178    7.24952725
    1    4.66173560    3.27534927    0.69577966    6.54834133   -2.39505695    0.40324318    6.98424492
    1    4.50649117    1.89148514    0.80414393    3.53397851    3.75923482    0.17294208    5.16243736
    8    3.65875843    4.64441976    5.86295333  -30.28241444   50.12133277   -5.39675928   58.80729235