 BEGIN_INFO
   #
   # This is a XCRYSDEN-Structure-File
   # aimed for Visualization of Fermi Surface
   #
   # Case: Tight-binding calculation
   #
   # Launch as: xcrysden --xsf HICOLM.XSF
   #
 END_INFO
 # estrutura final
CRYSTAL
PRIMVEC
      26.36265159       0.00000000       0.00000000
       0.00000000      26.36265159       0.00000000
       0.00000000       0.00000000      26.36265159
PRIMCOORD
  300    1
    8  -10.69799864  -11.84224734   -5.77097615     -2.64411742    3.84936014    9.98250525    155.18879140  -42.90163384  -86.68387639
    1  -10.71541830  -12.14256435   -4.66891520      0.43054554    0.41190475   -5.83425252    135.22599351 -132.72865019 -291.32216582
    1  -11.13271680  -10.95186862   -5.19657652      2.09606708   -4.09037577   -3.72694176   -361.10653018  118.52893210 -362.19501598
    8   12.01802645   -1.17240034  -13.15047417   -170.72264937  157.17773171  132.20165534      8.41853657  -18.80498729  -62.07787611
    1    7.72361595    2.14293151  -11.17621477    162.55735158 -125.63253506  -75.15207137    529.85005868   44.28760216  -42.17840574
    1   11.74179222   -0.02494957  -11.01855824      8.36562643  -31.21380497  -56.78037301    -21.86873953  385.75633571 -200.23963710
    8    2.28809447    0.98207749  -10.47271599      1.35195536   -1.81560816    1.67079432    -12.41446024    0.77063393   -5.48210554
    1    1.94586596    1.57324656  -11.11041471     -2.87041690    1.87009826   -3.29801420    113.30172845  -50.63880713  -38.31343810
    1    2.79565407    1.80771239  -10.32399119      1.13010516    0.71149772    1.29304528   -122.01516551  -25.71791291  132.24574076
    8   -4.29692237    6.35045220    6.98824149      7.89486908  -16.00501493   12.69193030    -22.01620935   45.89356237   30.64200495
    1   -4.46865651    5.91970653    8.12645044      0.59768390    2.36203380   -8.16309477    -68.73366836  173.97373458   -9.54908712
    1   -4.30093803    5.45287824    5.89090982      5.21559920   12.54368825   16.24924178   -393.21345940 -111.71871661  -62.01693068
    8   -3.31873133  -11.05759355   -5.57116380      3.35083738   -0.36402386    1.01924902      5.17385759   -1.69661452    2.01839405
    1   -3.85279012  -10.57826681   -4.86772535     -1.55710289    0.06432124   -0.74355281    -36.76024903  -11.46789867  -62.73930022
    1   -3.50218493  -11.41398387   -6.48610330     -1.81471507    0.29934258   -0.30097866     -5.43653234   33.74493789   30.76140423
    8   -0.90455085   -6.21946674   12.89772358      3.71973278  -15.23469923    3.11754120    -47.29947656  -66.37103634  -81.03557482
    1   -0.62052764   -7.44409778   12.68863350     -4.45831822   11.21474447   -0.41857286    -25.33747279   50.24858503   69.24706767
    1   -0.97220685   -6.99571366  -12.61015661     -0.79662449    5.24602285   -4.14300700    152.91416221  185.29179754   27.41904136
    8    1.79610724   -2.67217712    8.47334499     -2.25551134   -1.12432826   -0.22393053    -43.33305760    5.30726382  -33.28491538
    1    2.69083462   -2.52481578    8.79580805      2.13607870    0.55988689    0.09831528   -128.12650059  -89.49420220 -103.83300393
    1    2.02959165   -3.32073871    7.71177233      0.09763095    1.00874363   -0.18886420     28.77522751  142.29485174   25.35123351
    8   -9.00326985    0.14294314    5.74374154      1.55238818    2.15235917   -5.70034100     -7.50948585   19.30247491    7.83477971
    1   -8.97115831    0.55264323    4.70027871      0.31082260   -2.34203799    4.70933830    143.90389544  -98.72712424 -110.65319470
    1   -9.81066832    0.63617428    5.96210854     -1.52388323    0.29810963    1.03187422    -28.28608450 -169.27626251  -28.08000194
    8    0.79518502    8.69083863   10.76259565     28.66468153  -31.05652514  -43.43791175     90.76576456    6.16299721 -166.97787609
    1   -0.10674409    7.75908768   10.39420367     10.06362875   10.78959619    4.49444042   -291.98322031  386.12890762  -10.69607156
    1    2.31824526    7.90564950    9.24874402    -38.82389276   20.21112365   38.83035499   -596.93392772 -332.15895485 -718.54169335
    8   -4.87358750    7.68609898   -7.30996019     -2.41037094   -2.32003376   -1.86482065      5.55478708    1.35077945   -9.29104858
    1   -5.51756470    8.45299623   -7.43945695     -1.27548882   -1.04374362   -0.95602924     11.52850568  -16.13660323  116.80840587
    1   -4.52149025    8.41409515   -6.93247531      3.68431405    3.36719944    2.78693406   -103.95425246  -50.90262147   17.03444440
    8   -6.82762918    0.30473563    1.86958373      3.17955874   -0.36433707    2.04047241     -1.61025928   -9.43752137   -2.68283160
    1   -7.24884280   -0.57130737    1.98089457     -0.19619591   -1.74471881    0.47952981      2.45236522   36.75210175  -12.67476164
    1   -7.47373200    0.69747249    1.37306410     -3.07382355    1.87760550   -2.29672930     44.09122790  -54.38031399   41.46562357
    8    0.59114295  -10.56958943  -11.07817434      9.96664644   11.40407754   -7.22214999      5.30492557   20.40560899  -44.73134984
    1    1.12552389  -10.62553772  -10.21320759     -0.53115568   -0.09814629   -0.03100035   -166.58567687 -263.90182620 -217.34440297
    1    1.36495341   -9.62121109  -11.69657649     -9.60832316  -11.39333569    7.27840964    189.68240723  -82.92508837  122.30076573
    8    2.00234628    0.09657127   12.14950298    -42.91784919   65.93781182  -93.02372661     66.24349037  -24.09703399  -21.16043002
    1    0.94060180    1.87960351    8.95611718     35.19992314  -59.76532617  107.98907593     60.04828580   83.66749214  805.60536240
    1    2.22661231    0.03402475   11.54634297      8.26809804   -5.24299876  -14.22475588    189.40716431   -6.35433858  -37.16864607
    8  -11.39252419   -6.44049223   -3.69057913      0.34073451    1.62786474   -1.62393963     14.45980579  -19.14610274   -4.88877215
    1  -12.13706225   -6.34652977   -3.05825751     -1.00258069   -0.14797528    0.96904666    146.83511866  -74.94913147  121.80753505
    1  -10.89027507   -7.24561250   -3.46312491      0.64164187   -1.57031325    0.59023345    -48.71218085  -21.95604461  139.37056088
    8   -5.46786429   -0.11499235   -8.03453263     -3.89420363   -0.91034749   -0.15268129     -6.03473185    2.16901281    6.89648960
    1   -5.98705486   -0.86163592   -7.41919857      3.40421986    1.28435175   -0.05439065    113.67707265  -77.46901406  -46.55092669
    1   -4.49543030    0.05885441   -8.14390807      0.90606084   -0.99758475    1.16233716    -18.68465208  -73.09157308   15.69439584
    8  -11.66543474   -0.01504373  -11.84785199     -0.68925095    0.09306430   -1.65555528     -0.30108907   -0.68242288   -4.13510460
    1  -11.22118766    0.04577396  -10.94962866     -0.72087285   -0.16114800    0.71912195    -59.78169982  -35.84980385   17.14620813
    1  -12.68913628   -0.22205891  -11.96830292      1.46164166   -0.11713274    0.60251454     39.73413635   56.79871416   43.78050615
    8    7.81700280  -10.78758671    3.26610928     -7.46660775  -16.43946599  -11.58497046    127.36525560  265.86097422  249.73328616
    1    8.01024487  -10.34026926    3.51040452      8.18257420   17.60296915   11.36869378   -560.64812904-1377.15150074 -645.12017431
    1    7.69617919  -10.56843345    2.31110557      2.97256214   -6.37550564    0.69556510    -28.49550098 -883.87552006  340.26695052
    8   10.95256414    6.18348816    3.83762344      6.22663034   -1.42296433    0.21782528      0.00724649   21.50942627   -6.59204353
    1   11.03402129    6.33782765    4.80804436     -0.03606643    0.23484301    1.14420865    -42.05630741 -135.31359473   62.43093312
    1   10.11647403    6.33788613    3.64268093     -6.21718025    1.18069316   -1.35513237      8.45969544  -68.60544282  -30.26545652
    8   -0.96638610   11.18640126    1.86282927     13.09814452  -31.03420124   -5.35345432      6.26988538   -1.63139239   41.45333855
    1   -1.44492298   10.60125200    2.45786688     -2.37416304    0.30964934    2.11296939    -69.92851290  580.68213031  -85.83586869
    1   -0.37110298    9.58651604    1.63289234    -10.70142073   30.82096070    3.43578404    595.01704758  280.51716267  224.10685340
    8   -2.50881105   -0.62812644    9.01565777     -2.26872976   13.14471204    7.16149728     -3.63181914  -38.73218098   25.32984620
    1   -2.74027246   -1.59857786    9.05458955     -2.51467453    0.19137930    3.28367466   -395.85128973  497.99624919 -101.90046283
    1   -2.47350080   -1.24598117    8.78445026      4.84784253  -13.13835040  -10.82636271   -279.51828665   17.34659063 -141.37975693
    8   -3.21561887    6.97098775    5.47752456     21.52102821    9.75416193   -8.77033761    131.21278590   29.52650077  -33.34378635
    1   -1.53215313    7.37251263    5.45255200    -32.39317133   -7.70421980   -0.38288675    208.40401979   -7.02543283   48.85885876
    1   -4.24034627    6.95306108    4.68577900     11.34847974    0.10868291    7.48719047    186.38656743  -79.60002919  233.89938118
    8   -2.59335544   -3.76716100    7.56466283     74.89537506  -70.64078644  152.57041919   -181.05947435 -120.28413657  130.56264690
    1   -2.52584859   -3.60978433    9.06495261     -2.31278456   -0.90706462  -22.79158535   -377.78209121 -272.92671885 -251.71581555
    1   -0.55508686   -5.77388380   11.16421066    -72.94025510   71.00147859 -128.38214844    834.54682063  423.01098873 -683.44596948
    8    3.63986669   -1.41997905   -5.53880598    -25.71532429   -5.14570412    4.29731582     -9.33043489   78.56666086  258.37784095
    1    3.47924405   -0.90024894   -6.32957104     -1.39318320    1.11558389   -1.98027806   -131.77876997  -75.89068460 -315.73593248
    1    4.04912698   -1.34204116   -5.60973416     26.90565138    3.82071039   -2.45561386    612.10183171 -724.03239799-2772.69973081
    8    0.66802090  -10.40293774    2.93567724     -0.53659332   -2.82187100   -1.67845680     -0.48892070    4.23671026   -5.70044278
    1    0.97769008   -9.66870141    3.48737064      1.03077985    0.89438783    1.73937129      5.15011776  -92.83197597   35.42542147
    1    1.05500238  -11.34364370    3.26047597     -0.23577479    1.91788562   -0.34600648     72.01217953   83.39083074   14.90504119
    8   -3.05439068  -12.07401055  -13.01985341      0.29000992    0.22272379    1.33907138     -0.67090309   -5.66572430   -0.41341505
    1   -2.51281208  -11.55994928  -12.30669723     -0.03557005   -0.13305340   -1.04081442    -73.68281414   34.21206632  -38.33189692
    1   -3.69353517  -12.48591739  -12.35198711     -0.20484853   -0.17059287   -0.39305659     78.13998981   68.15218755   56.17754193
    8  -10.55258212   11.07787976    2.85840184     -2.59957272   -2.58138324   -2.64246389      8.09149137    5.92587418   -0.57007024
    1  -10.96056035   10.16530029    3.33376876      1.06205107    2.74722846   -1.97567087    -59.24680564   27.71321371  -61.84069167
    1  -11.27238470   11.42560076    2.15771203     -0.03100783    0.33507273    3.22552034    -49.82013701 -116.73164315   70.77570169
    8    3.67995757    6.70979614   -6.81811896     87.03730473   -2.76730148  -74.15122227    -91.10698510   98.29752569  -20.03839831
    1    4.16901525    6.07090619   -8.57888994    -12.02747701   13.49738272   38.33270481    669.40604104 -256.06109125 -441.34274079
    1    6.23469813    7.09102892   -8.00024564    -75.26065831  -10.81322627   35.72177601   2351.60957000-1317.84249204 -444.66681512
    8   -9.85254810    6.90232717    7.30482802     -3.48136807    0.87322940   -2.07055147    -10.75360028   14.59041554   17.46474761
    1   -8.94791786    7.17006699    6.84640675     -1.88678516    0.00453658    0.11579736     11.91636376   63.94400360 -168.09463760
    1  -10.84723496    7.16985442    6.82360637      5.42030156   -0.87593726    1.90611806     99.51016860 -131.10570058 -130.77539426
    8    5.06568146   -9.31276069   -8.23773057     -1.25119818   -0.83590765   -4.20473202     14.77245930    2.55801824   -4.64478638
    1    4.24389688   -9.31070303   -8.92661332      0.90615808    0.34795027    2.97349488    -26.16939506   88.23130068  138.78233030
    1    5.47056230   -9.45494088   -9.19484960      0.89352904    0.22404399    1.99350457    -66.52667638  -62.00676637  -38.94706769
    8    5.73606159    4.66019302    4.94707065     -6.09151489    5.17576188   13.13876921     12.69091880  -24.80686818  -15.47763913
    1    5.38936383    5.48429838    6.08520018      4.24613314  -12.03930876  -15.41347206   -303.70988189  151.19898521  181.34239986
    1    5.34887019    3.57306507    4.73940139      1.84061156    6.82857906    2.25372898   -182.14241841  247.34262545 -159.62040086
    8    3.27093325   -5.63202904    3.61598748      3.71131748  -11.37981744  -31.80586405      0.89200938   11.52473312  -11.17726119
    1    2.63567682   -5.37588077    3.05277100     -5.51049597    3.42367254   -1.36170783    176.16585439  -28.49882499 -104.47301092
    1    3.24652220   -6.06577938    1.91643401      1.82676082    7.82222272   33.14464129   -122.63688821 -214.88212478 -114.79976704
    8    6.86347793   -5.79527702    4.70056258      4.81118681   21.06726225   19.39266067    -56.75993403  127.54344357  -34.30245332
    1    6.59927279   -6.26452805    5.47012121     -1.28711330   -2.95866770    1.77797291    -85.86941261   93.19960001  -49.56930791
    1    7.08201810   -4.70784347    5.88631517     -3.44280796  -18.30859086  -21.33819781    190.93533324   76.68700177 -118.35627639
    8    3.71859417  -10.31747962    4.70210000     14.26837865   39.57624031   -4.80219530      5.48219044 -163.17995412   59.65734780
    1    3.81576505   -8.93047590    4.45854754     -4.23048791  -17.72457574    2.63480570    -58.62077658 -616.02770205 -208.06093304
    1    4.51681090   -9.01353028    4.61995137    -10.06547902  -21.53450294    2.00748042   -676.74187994  154.12694830  330.74678096
    8   11.23811320    0.92301102    7.28699807     90.95491862  -10.19606045   94.15983929   -141.66157823  -65.22202552 -114.04631926
    1   11.98595180    0.92415430    8.83650456    -16.36369500    0.60414378  -27.70035477    -94.44816371  254.46583347 -353.73201315
    1  -12.77755835    0.50412492    9.36281434    -72.37077149   12.51005402  -65.69050215   1075.49586682  807.59312874 1523.53518344
    8   -4.00519722    2.13568222   -3.42766159    121.54780748   25.86096210    9.82513465    -54.13164989 -220.14124199  157.67375389
    1   -1.32894219    2.49308764   -3.31215973    -75.93081260  -11.72543210   -4.38148654   -487.13799851 1657.44416756 -462.20585791
    1   -2.09959273    2.80136507   -3.14701290    -44.45424739  -13.32078243   -5.54035889   -715.52029449 -318.88880771   -8.08528451
    8    1.69274221    3.05658600  -12.38533312     98.88694236  -73.30859689  -24.61945368    -40.59627493    8.11023889   31.23398442
    1    4.47768147    2.35481535  -12.66081466    -82.98306561   21.80276360    8.42012620   -215.15584570  149.47305445 -597.06346199
    1    2.27741534    1.00372984  -13.05498443    -16.31763294   50.09950637   15.76654115    410.31539106-1421.19730167 -648.51764390
    8   -3.00006302    7.65793449   11.87660430     -4.92065425    1.69581449    5.14956892    -10.84662481   -1.37623182  -35.23099982
    1   -3.66113694    7.80245685   11.16684272     -0.02700910   -2.99528020   -6.06409341     40.24310284  -18.07798182   58.74537468
    1   -2.12017396    7.49123466   12.16817338      3.96128993   -0.70817767   -1.65746215    -35.90373732 -174.75376865  205.95166655
    8  -12.75475700    4.90102306    9.41805614     34.84359381  -24.53907184  -88.87403794     13.94395823   31.65961581   -8.50090748
    1   12.69540356    4.80265383    9.95535773      1.31774904   -0.47384224   -2.53800829    115.69820117   51.87474256   24.60876056
    1  -11.61885668    4.10470878    6.51181146    -36.22638923   24.93211714   91.36861443   -180.33189525  190.53998311  360.43195972
    8    2.69554118    6.78922014   -0.93796315    -16.90051705  219.33329086    0.88972360     -8.40081053  233.98006997  -28.72317780
    1    2.29181670   12.47897002   -1.13785130     15.21593425 -214.94788332    7.28743259   -319.62006752-2567.50318062-1001.41628536
    1    2.51941169    7.20264915    0.18888012      1.48218068   -4.55333185   -8.07214020   -455.84529003 -287.23634533 -431.98989982
    8   -4.22590801    7.37821199   10.34160221     26.36802077  178.71929040  -20.51744391     27.64853994  173.23799517   32.87198377
    1   -3.55377961   11.69986061    9.19659422    -23.97867752 -153.99490516   40.24612559    139.34892258  -70.52909043   -1.57539229
    1   -4.23402633    8.67399935   11.43836907     -0.27851546  -24.05002460  -18.00935941  -1200.59996846 -960.64461767  208.66108164
    8   13.11915037   -9.89004478   -9.13471647     -2.53896278   -3.50105563   -4.84297047    -17.86837733  -41.42152511   13.12360509
    1  -12.49591301   -9.44308828   -8.77448366     -0.42614617    5.61256885   14.09144808   -100.98245748   15.74170256  125.36317882
    1  -12.61835323  -10.01329550   -9.95445624     -1.60375786   -0.03610548    1.13346138    154.27181743  127.85372747  -64.59032083
    8  -11.70089234  -11.82441105   10.08399053     -0.33319565    0.31425011   -1.95120978     -3.94505212   -5.23783652   -6.18936566
    1  -10.89212423  -12.28505664   10.45050642      0.12159960   -0.13010789    1.00905559    -29.68110104   55.56930462   45.88962462
    1  -12.40345388  -11.47311695   10.70983724      0.22567966   -0.17744523    0.90582178     81.64421493   -3.52082732   51.99282973
    8   -6.39466934   -7.82523723    7.76694451      0.07870241    1.25803249   -3.66298261      1.94467686    2.06044105   -6.07828363
    1   -5.84573807   -7.44895703    8.50045524     -0.19631558   -0.83299655    1.91202132    -35.68355292    9.70759908  -25.64589902
    1   -7.07451039   -8.56641303    7.67419296      0.09143400   -0.45359755    1.74576127     44.55489776    9.49177344   45.41642746
    8    3.40249300   -2.19859037    6.86283600     20.15105846   66.63015421  112.29924816    -40.09498925   42.60720429  -19.52006413
    1    4.70566243   -2.48824285    6.93438501    -13.39021858   10.37991844   -1.21116427   -226.09888102 -149.55125081 -146.38234140
    1    3.60368461   -0.11284230   10.11941881     -7.00849302  -70.87099998 -110.64692746    817.78150690-1131.53516460  863.37522139
    8   12.97844580    4.27219691   -2.72785014    -32.36386605  -18.10047684   57.21755493    124.58415282   78.61991780 -104.61266330
    1   12.31967968    2.99477338   -0.72380408     17.44231185   35.15829890  -53.94290152    397.76280528 -561.38576568  -18.09525034
    1  -13.15866779    3.85277784   -2.78120194     14.45904949  -20.01507554   -4.20040932     67.83233010  277.94575051  149.13833960
    8    2.54811843  -10.03879210   -0.54782000      0.09446758   -0.49957642   -1.51608820    -19.04734652   -2.72634100   -6.86198497
    1    2.72030697   -9.11820338   -0.28950696      1.08522594    1.92288567   -0.79377370     98.92525278    8.07419654   75.16370420
    1    2.17244718  -10.08911346    0.32776638     -1.10468901   -1.61054398    2.32534849    102.80570363  -85.59063975  -34.26889052
    8   -1.54504309   -1.23029926   -1.94681380    -38.24422258   -2.38727298   62.01757418     51.78550381   30.22044156   79.24755823
    1   -1.24118188   -1.18170732   -2.41432245     12.84139529    8.05556190  -15.89904105   -722.15948000   17.33512873  748.34171309
    1   -2.56461599   -0.92479736   -0.05975225     25.74169204   -5.02425637  -46.10779277   -496.29772949-1194.44025927-1351.89424170
    8    4.14794516   -2.95529517  -12.62224803     94.41609260  329.83789744 -211.15129293   -240.32251930 -325.30381633  184.39732415
    1    5.89678090    3.29279554    9.26662620    -70.29517803 -250.47597609  178.59021153  10198.60183290 2128.26678650 -842.43106064
    1    4.95706587   -0.31039438   12.71704183    -24.09668059  -79.56408937   32.62020339   -340.22897591 -318.27683682   62.59866605
    8    0.30262025    3.69902725   -3.49501648     25.98966416   40.34879018  -29.14693125    -82.29508861   37.97806732  -52.06555255
    1    0.75886623    4.92743673   -5.66497323    -12.01703656  -33.50409278   59.96642558    214.85303517 -645.00083717  310.80108475
    1    1.06507892    4.11039908   -1.95052374    -14.41958649   -7.15488048  -30.51534242   -122.35776446   15.36715086  -35.54608971
    8   -5.30994811   -4.27631891   -7.59840704      3.25328120   -0.53904649    1.19363097     -1.35007414    7.82441930   -0.64705093
    1   -5.02740420   -3.55031196   -8.24852218     -1.49689073    0.24966221   -0.42760020    -45.01980133  -15.44969105   38.43094890
    1   -6.21799657   -4.56597277   -7.35293864     -1.77677999    0.46372096   -0.76873647     31.66227617   24.37189775  -53.40933175
    8    5.70242317  -10.43506300    2.21922157     25.13697062    5.05060881   -1.86371200     43.47721295  -17.08111654   42.86331034
    1    4.81519740  -10.67056931    2.81645065      4.03320046    0.22352199    0.20433267    108.60487099  112.64517286  150.87948103
    1    7.32823183  -10.16303771    2.20841712    -34.71370499   -0.68595232    1.56283965   -512.39754115  368.37523776   41.25475386
    8    1.11344771   -0.80991783   -4.31833304     52.83778313   41.05892056   37.56788820     58.54893041   -0.80694083   18.71227047
    1    2.43068396   -0.48464162   -3.55154233    -17.51789414   -7.42629615  -11.96082377    -85.92855203  124.26821011 -181.23627559
    1    2.30185766    0.69591971   -3.29085310    -30.67253915  -36.60225930  -26.08479903  -1185.06069956 -196.95467293 -563.66101637
    8   10.77014881    1.58736169    4.26826666     22.60273412    9.92192908   74.27730096     96.70863755  -72.96280691  -42.05159090
    1   10.06602330    2.31464388    3.73575310      3.88456575   -3.51415952    4.08329559     24.94225959  441.31135755  538.42973999
    1   11.68742569    1.82958765    7.00534340    -29.91753668  -10.70908884  -81.93891103   -301.47119811 -816.50358019 2300.06226742
    8   10.14094200   11.39105466   -3.75394195     -6.55338167  -21.40777367   35.50339202     -3.35903732   46.08169321  -34.40293706
    1    9.82722257   10.14861283   -3.53608449      3.69555625   12.48317183   -4.18918593    -63.27623137 -160.91705952 -211.47644932
    1    9.99095674   10.99984523   -2.08030982      3.32485195    8.96112929  -31.24363083     -7.60347082 -415.66061292  259.00398721
    8   -3.78719029   -3.91786476    0.98135065      1.61959512   -3.29982690    0.53949250      8.08511407  -10.53668489    5.99369223
    1   -4.16260985   -3.15335985    0.69292248     -1.70320549    3.66439209   -1.02535635    -44.58733398  -84.33722783 -100.93544134
    1   -4.29925162   -4.42218467    0.27893815      0.13582649   -1.09045195    0.07337953     -2.45363002  140.28968218  -12.86055977
    8    1.68071205   -1.10712789    3.23177207    -26.43269705   10.60998126  -45.79482232     39.32413754  -78.67941679  -18.10665898
    1    0.61900215   -0.59184611    1.30555725     26.96198124  -12.83105544   49.08015359    -31.51360093  371.89969227 1789.55297651
    1    2.58864445   -1.23758300    2.69571635     32.53222894    0.63685873  -50.78893706    990.98814001 -414.86269721  -63.43237990
    8   -1.69841312   11.88497255   -3.08230857     84.59415603   78.00790502   43.13858262    116.04364339  395.07397307  291.65869593
    1   -0.07947724   -9.09393101    0.78369258    -63.04072354 -210.86485474 -151.09939579  -1365.53590994-2208.54139407 -521.76997106
    1   -1.19868013    7.97214074   -5.68551791    -17.27604713  141.17959251   94.05496268   -563.96650349-1113.82186665  -89.45007484
    8    0.82340633   -7.48973845   -5.77398921     22.41270282   63.99122224   32.80840015   -163.37182118  -70.38101093  -31.50924150
    1    1.39115623   -6.23383885   -4.88303200     -8.96992914  -24.22572505  -13.30899959    784.74966768  -65.80450669  290.77376804
    1    1.37161232   -5.70157901   -5.01457319    -13.47217471  -39.82088314  -19.37674160    370.27258574 -501.80068485  329.52231470
    8   -4.67255113   -1.62675315    2.63395475     -7.48959892    5.07563504   10.68309495   -144.26893082  -45.66492314  206.48847539
    1   -4.35956750   -1.97819523    1.05611629     -7.65479900    7.85782345   27.92780923     -4.16842204  -51.55254205  -19.41248160
    1   -5.41719561   -1.03900962    4.33565546     14.90516355  -12.28406707  -38.33386636    256.29205754 1180.10921186-1914.81541971
    8  -11.70844414  -10.53173619   -2.73546103     72.10308033   80.47802092  173.39564759    110.38841655 -155.87670645   33.68045254
    1  -11.49981775   -7.74378078    0.58660258     -7.70961478  -97.96516575 -117.16597397   -160.94094183 -160.78286728 1136.03893833
    1   -9.56244103  -11.13248706   -0.85496812    -64.12318069   17.51359392  -56.76255228   -433.89162862  443.67094807  -70.19557134
    8   -1.91777826   -7.60291351   12.20854899    -21.63451941  154.23986635   27.13621801    -82.29934543  194.65644943 -173.65459707
    1   -1.56354671   -4.07578001  -12.01238891    -12.12613746 -122.62146742  -74.26521560     58.66999032 1821.03433829  366.90528100
    1   -3.22330600   -6.42582608   10.45168311     35.03919400  -32.21520188   47.62344682    101.48803463-1731.77505239  989.15678428
    8   12.99610582    4.63487510   -4.11992890      2.00110294    4.72505197   -1.45141487     -7.28846232   -0.99215673    6.28394573
    1   13.05374803    4.66417100   -5.10335664     -0.59106525   -1.69005238   -1.02973617      5.16695694  -46.32121292   25.83749497
    1   12.71994115    3.98400788   -3.47468304     -0.90934832    0.05393253    3.44107307     39.01446527  110.36098008   -8.91653501
    8   -1.42791720    0.74357761    0.70562413     20.78653711  -58.32605927   21.10506357    -55.51919683   -2.44149522  -43.26898197
    1   -0.80721663    1.79132433    1.39457890     -7.60113257  -13.71129470   -8.13778931    181.75841530  460.41407545  -92.86281380
    1   -0.95052118   -1.79210349    1.17666755    -13.20664384   71.11711331  -12.76298911   -532.51618141   43.43722447 -275.59119541
    8   -5.71334140   -1.75208553   -6.43120688     -7.44000126  -19.98356441    5.35466678     94.02419162   11.37620440  165.32584975
    1   -6.71108121   -2.72460994   -5.92726355     14.38952950   14.41189097   -7.07717759      7.60275795  403.21404688  132.32231407
    1   -4.76170769   -2.51556927   -6.49911041     -7.27807141    5.97574705    0.64574428    171.36610220  241.55030726    6.97308429
    8  -13.12217017    9.55400654   -9.19389787     -3.65843281    3.16003736   -1.31302081      0.03184041   -0.53891074   -2.73710728
    1  -12.20450863    9.81835425   -9.49673091      1.14202070   -1.94374793    0.79234237    -23.28276846  -47.30801709   35.33008318
    1   12.65797513    8.84440295   -8.77561580      2.21122633   -1.55881614    0.48951391     25.14421457   14.60663301  -14.08680927
    8   -0.94105748   -8.23919061   -9.24546876    -23.77335413  -15.88711879   14.35861295    -62.31734955   72.76158962  -10.74241025
    1   -1.53069764   -7.33827152   -8.81736936      3.81883996   -4.98440875   -2.51408039   -197.67416005  399.02107019  369.88966837
    1   -2.01183146   -9.38426741   -8.60396841     20.08491152   20.95540645  -11.89729451    224.83233955  243.61241469  -43.70929744
    8    4.72881085   -6.39084865   -1.85264157     10.02701056    2.85967363   16.90470496    -19.81972723   47.06347508  -74.77796658
    1    5.85029298   -5.89051701   -0.92042664    -18.80331186   -9.10417228  -12.66327743   -335.02586619  554.05325206  704.29077303
    1    5.40092015   -5.98450140   -1.77306260      8.73202072    6.31647351   -4.15587209   -157.51590918  241.50647076 -163.89134146
    8   -3.46412673    5.65309184    6.25002190     -5.87353164  -14.98264006   44.80509837     37.45284663  -43.31720782   36.60960592
    1   -3.34497704    4.91373275    7.93070531     -0.83506134   15.51217145  -34.00040564    796.11227432 -600.24900766   18.50915789
    1   -3.96341258    6.25353176    7.34281439     -6.36418312   -0.28508439  -28.93356582   -238.80288182 -149.28346887 -245.81757101
    8    6.44003517   11.41567690   -1.23477032    432.85164828 -151.45514317 -115.86022169     21.05506560 -167.92394671  -47.36525983
    1    8.37090878    9.95876428   -2.61376787    -58.26519709   41.91024133   39.41364382    118.60750682 -527.45496567  146.14301363
    1  -10.79659122    8.76043628   -3.08472394   -375.24669446  109.38503724   76.41003694    496.04823791-1066.97902311 -413.07104710
    8    5.47783056   -9.42875388   -5.91006035     -1.04932115   -3.98406182   -1.79960739     -1.94196506   -7.19888584   -8.42344644
    1    5.14520868  -10.35045685   -6.37700260      0.49670783    2.75592700    2.36412116    -28.29503092   50.55067772  -23.36920364
    1    5.75065161   -9.31585835   -6.86497235      0.09199852    1.53379256   -1.28967007    -97.67657775  -19.11466043   79.61272491
    8   11.39756054    1.70727473    5.43270769      3.80881930    2.07025807    4.62335396     -1.14077835   65.42322519  -17.35002063
    1   10.99915260    2.86180211    5.81782005      5.51800220  -11.22261914   -3.82459904     64.27880179 -285.88068407   52.01829968
    1   12.27870958    0.79745787    5.25464060     -8.03016425   10.40581233    2.26090719    551.35410486 -335.66138022  931.79010860
    8    1.32978387    1.02321100   -4.54927678      7.70649260    6.02180600    3.50618630     20.87527114    8.02774475  -58.70083324
    1    1.85070752    0.50001504   -5.41299825     -2.50154024    2.63346785    4.51423827   -496.49213488  106.38547484  153.94816891
    1    1.87889309    1.91938431   -3.85880475     -4.87275564   -6.93007396   -7.25247310   -165.60785988  -79.36352280  184.35348123
    8   -3.15002641   10.15923245    4.45697855     -3.71857268  -14.89800812   -1.94848458    -65.82911693  -34.11866644   33.31975346