 BEGIN_INFO
   #
   # This is a XCRYSDEN-Structure-File
   # aimed for Visualization of Fermi Surface
   #
   # Case: Tight-binding calculation
   #
   # Launch as: xcrysden --xsf HICOLM.XSF
   #
 END_INFO
 # estrutura final
CRYSTAL
PRIMVEC
      14.32328632       0.00000000       0.00000000
       0.00000000      14.32328632       0.00000000
       0.00000000       0.00000000      14.32328632
PRIMCOORD
  300    1
    8    0.08050251    1.32763241   -0.44930233    -28.45852358   10.53799481  -30.58987184     -3.35020301   -5.78321198   -7.84611974
    1   -0.15899514    0.57710798    0.21756411     -2.35421465   -6.13861786   -0.08979771      1.67378377   28.49660023  -16.01971832
    1   -0.75471792    1.19927706   -1.09839747     39.52808253   -2.42635651   21.45707992    -10.76455901   -0.79703832    2.19499639
    8    5.73384291   -5.75394617    0.11847722     31.27140214   11.81029444  -14.64841777     -2.23528771   -4.44865513    5.25010495
    1    5.11067751   -6.33743865    0.65091421    -12.75980240  -17.20618109   11.96286453     -6.58664531   19.93667790    7.47557196
    1    6.55905583   -6.39683652    0.04801085    -20.49019030    3.38356222   -0.61764886    -13.57833850    0.02270086  -34.11496985
    8    7.02590769   -6.48594335   -4.57540488    -11.51221035  -19.78972403  -11.02912963      5.80566160   -2.86720200   -9.51388242
    1    6.94744661   -7.15795761   -5.41198086      5.55361276   20.56546657   30.32280775    -10.11424186   14.91000251   25.90290694
    1    6.15039227   -5.97833140   -4.77305903      3.87155338    7.36713811   -2.42460122     -4.92714074  -20.11207592   26.43254907
    8    5.59355254    1.73624966    5.73839330      8.21400392   54.12164633   -8.68470463     -0.66800657   -1.48997709   -3.39334448
    1    4.82345427    1.37025572    6.26773318    -19.40347614  -19.76169229    9.69207682    -28.93789059  -16.68372877    6.73048925
    1    6.15839646    0.95250508    5.55457522     16.28665929  -34.15225821   -3.56797453     12.03033885   -9.41545557  -14.93653584
    8   -3.96030682   -0.53166450   -3.27591837      6.92367301   -7.41338823  -33.57326303     -4.63729388   -1.82016452   -2.49070391
    1   -3.96951492   -1.55729989   -3.29802761      0.79627448   -4.94707106    8.58184803    -12.68085893   -3.54861092  -31.56233806
    1   -3.62143847   -0.44352385   -4.28760021     -4.84128525    2.76659696   27.87160605     50.86982541  -24.70118201    5.55658312
    8    1.86978284    5.93791324   -5.09041130      4.26639247  -10.28645845   -9.36392569      1.08291996    2.97780217   -5.55255264
    1    2.54765493    6.38244026   -5.71609462      8.09482877    5.03457882   -9.09999515     14.07959223    4.17854975   -5.01872242
    1    1.99830968    6.60455043   -4.32147226     -2.96237892    8.56451661   13.17778411      2.70434463    8.17353855    6.66617721
    8    2.60197614    0.35431440   -1.21270775     43.68842485    8.73212869  -17.33709464     -2.47112903    1.87213437    4.15891549
    1    1.83593608    0.52512250   -0.61629279    -40.37038536    1.31145613   19.89090711      0.65802201   13.41136124    0.31025803
    1    2.92997521    1.33804458   -1.13851065     -0.26412275   -8.36538757  -10.36276511     -2.96163932    7.33547588   -3.29027943
    8   -2.33970611    3.04531420   -3.39474935    -40.98822499  -40.39882810    7.73349740     -5.55785599    5.37912473   -0.25807580
    1   -2.07902782    2.04422503   -3.32402851     -1.33137090   18.50111785   -1.85275861     22.70447858   10.10452012   -1.60201274
    1   -1.43304023    3.46217366   -3.56323497     30.40043351   10.78514429    2.46241729     -1.11147144   -9.76743124  -30.37374980
    8   -0.07593045   -4.60585977   -4.04023897     20.05858273  -14.86931413   15.68184634     -0.03723911    0.91748507    5.00741204
    1    0.42778569   -5.24949726   -3.38619944     -6.74721004   17.29127232  -17.01007161    -11.47189899    8.20378647   21.08956894
    1   -0.79296351   -5.25944922   -4.35151204    -12.48233871   -2.02699452   -5.36506474     28.21321517   -4.83822881  -15.30961659
    8   -3.40398125    1.95037748   -0.44978220      7.78553915  -61.04777485   -9.65407880     -6.50077772   -3.57063545    0.35610693
    1   -3.60101446    0.92807459   -0.19415915      5.25202875   48.36976871   -7.48488560     44.81705947   -4.49178974   -1.17606005
    1   -3.06951604    1.78614973   -1.41425255     -8.34401832    2.82391549   16.38789201      2.91316786   17.84743051    4.27831109
    8   -3.88701813   -0.98373321    0.50563261      3.96151471   24.95714877    8.35528104      1.63263914    0.77829316   -7.17668563
    1   -4.28275077   -1.87717059    0.25017991    -10.50284341  -13.11668100   -2.74574487      2.16395217  -14.89824743   -4.60102403
    1   -4.56052890   -0.72342889    1.24212489     10.00981754   -2.78679431   -9.65900856      6.29828507   19.93998024  -27.68425680
    8    0.34505698   -6.90190689    2.49933537     27.08063974   -5.33138555   14.11956907     -0.47310617    0.51883649    1.00677644
    1   -0.25930560   -6.32316117    1.92744692    -12.33134482   14.83775804   -5.74694058      3.58941643   -5.86164502   -6.78298872
    1    1.12571817   -6.26201193    2.76928956    -12.31675709   -9.08195780   -3.01251898    -11.51135422  -17.18015969   36.95000044
    8   -3.75611762   -4.76354651    2.60079630      7.05800394   30.21255794    3.65299515      5.52483992    5.66296538   -0.61476251
    1   -3.17767749   -4.90150939    1.80772586     19.56044207  -18.50071193  -26.45570884     21.81727365    1.79812258   24.15556602
    1   -3.17397274   -3.92611002    2.88400249    -12.76255994  -15.35977403    8.77358192     -7.07227814   23.93284711   -0.52899414
    8    2.26084638   -3.52015618   -5.12526694    -21.04996988  -14.81330408   18.88705592      2.29145539    2.41211632    5.54648525
    1    1.34939461   -3.98600653   -4.85883660     24.26362952   14.68045732   -6.91444095     -3.18505498   -2.91040101  -14.79511459
    1    2.42828703   -2.98121991   -4.26038019     -3.33025037   -2.11423021  -16.16028460      4.96961468    6.85134073  -38.28810502
    8   -3.95322489    4.45078594    1.32573689     43.33903009   -2.44367407    3.38819982      6.42648946    1.63246802   -2.65170522
    1   -4.77072164    4.96003623    1.67106776    -16.04212676   -1.24519514    5.87531414    -32.28308411  -45.94992400   -4.06660958
    1   -3.45953746    4.18014378    2.20037441    -17.31642752   -0.35178250  -17.65196344     -4.33541268   10.08212804   14.12121911
    8   -0.70005452    5.68988461   -5.46467560     36.27659073    1.38201089   23.46937476      0.12564239   -2.83340977    1.07443107
    1    0.33721463    5.95696086   -5.34340945    -38.83672647  -12.97515158  -10.97570126     -2.51715845   32.94698824    1.52875386
    1   -0.63912799    4.97270407   -4.69904957     -1.76185180   13.01271744  -15.47627761     -0.86567770   15.41916078   -4.56674224
    8   -0.44479403    1.33293090   -7.03691444     -1.54708660    5.22684329   16.66573032      2.36658937   -1.38428777    0.82188414
    1    0.02758948    0.79626195   -6.27280905      4.15004089    1.16084499  -13.47946163    -13.23083300  -10.17892337   14.93575301
    1    0.16677408    2.17677104   -7.03016803     -3.87138355  -11.04884344   -6.08668844    -17.83821047   -3.69588196   -9.98635296
    8   -4.00793290    5.69658483    5.09168767     13.72579067   -1.60845844   16.08184602      2.37260002    3.22257007   -1.60386910
    1   -3.19272932    5.36587226    5.70118587    -19.65493438    6.17052562  -18.52321467     18.19946756   18.91517282   27.07024188
    1   -4.03251625    4.93709209    4.40851707      2.36753071   -6.58657482   -1.43153716    -21.57857839  -17.85960156   -7.39924201
    8   -5.62811853   -3.13824914    0.81521399     -3.94458171   -4.01283885    9.44835664      3.00570892   -5.15687774   -2.26871051
    1   -6.59428391   -3.01044884    1.22033947     26.89147701  -10.22287033   -1.20131677      9.52939315   34.26663406   -4.78905941
    1   -5.00869989   -3.58725937    1.52669654    -25.03049500    6.62753002   -8.06451251      3.55300183    8.16738868    9.33861145
    8   -3.99669939   -2.37767929    5.97216904    -11.27071876  -49.99754948  -53.92834645     -7.16021712    2.46398557    1.99071943
    1   -4.37798333   -3.18663607    5.31775698     20.42088622   54.34995422   44.60278045    -23.84721832   15.92417480  -20.19756007
    1   -3.07600111   -2.24058401    5.52339344    -12.37611665   -4.04445156    7.20309466     -1.11925463  -14.52606513    0.38710756
    8   -3.28387638   -0.32935238    3.70256621    -45.88392979    0.52915967  -11.75976723      0.98168345    6.71020118    2.30988677
    1   -3.13842404    0.48890950    4.28549050      2.30095955    5.62432684    2.89112997     27.64446603    5.13087236   11.87515036
    1   -4.29780228   -0.19181497    3.39701410     39.76892699    2.16390199   13.83508140     -2.83499821  -45.73775237   13.32914702
    8   -2.23506106   -6.20677237   -4.93213217     23.47567271  -34.27281145   12.40511230      4.52651366   -3.29141664    4.97525904
    1   -2.56193740   -6.65494521   -4.05392896     -9.00961747   13.15909191   -1.42980952      7.32396557   -0.42535528   -1.71271312
    1   -1.61965323   -7.03201708   -5.11553449     -9.89777497   12.63983454  -12.01173677     -5.55433319   -1.04947223  -29.15302227
    8    4.79786502    4.28053735    4.31319744      1.41010107   26.91301384   -6.61462419      9.55813821    2.20948336    3.15503101
    1    4.07333920    3.57553198    4.19025079     -2.19018249  -16.55962933    3.99670671     20.92396951    8.82419137  -14.64396733
    1    5.60826313    3.75688312    4.63512810     -4.13636747  -15.38971561    3.15284547     -5.57865820  -16.51718187    9.91624585
    8    2.13570594    3.24287156   -4.81007665      0.20325742   24.14499039   -4.31168475      1.34587097   -9.38367520    2.02703204
    1    2.15604557    4.29777251   -4.95322388     -1.74872972  -27.78725351    2.09770538     -4.82610595   13.63221962   33.11602019
    1    2.27497146    2.91400289   -5.78100872     -8.79667749   10.71411748    2.95794426    -21.31203511   -8.38956464   25.58892381
    8   -1.52666387   -5.63623449    0.98927340      7.95546400   -8.55643816   16.78662068     -5.05755290   -3.05154787   -0.55713430
    1   -1.72367478   -6.62903945    0.76440070     -1.96141211   -0.21045242   -4.73747997    -10.99791073    4.83604319    7.65191319
    1   -1.80018258   -5.19101622    0.10546289     -4.93603918    1.40788539  -13.45902519      2.20008202   19.56672274    2.13881450
    8   -1.83135583    4.79887900    6.21279183     14.09663275    3.12617578  -11.45008468      1.21978801    3.28886161   -6.77336691
    1   -1.12195240    5.12287271    5.51248622     -8.07645889   -7.12839602   11.50501488     -0.35931967   -2.25591655   11.55483398
    1   -1.30607430    4.88330562    7.08733502      0.18836135    6.73859048    5.44343411    -19.89880269   -0.22039833   -1.48022371
    8   -0.86787299   -4.08499949    6.32201823     63.87758156  -10.35514680  -15.91945430      2.41944020   -5.70520837   -5.07749839
    1   -0.09062664   -4.61313849    5.82943080    -21.09395345   36.66078294   24.98949794      5.35506661   15.76745052  -12.90089788
    1   -1.43365754   -4.85712620    6.06774056    -42.57837253  -23.81933716   -4.32141649    -31.93299552  -12.33408316    2.38026840
    8   -1.79485838    6.04751242    0.27846122     -2.15354261   -1.73059113   10.27939195     -2.72093003   -0.40764175    1.24244572
    1   -2.70700264    5.64646740    0.52918878     -4.13931865    1.41194912   -4.53842900     -7.46685180    7.84866126    3.05029490
    1   -1.28710440    5.25605687    0.66823011      5.78651176   -4.95765895   -0.78711754     11.58895035   -3.57792753    3.85579615
    8    0.89718544   -6.76769752   -0.66925924     25.81274618    5.90284947  -13.52792061     -1.81577823    1.79731006    2.30482638
    1    0.33678723   -6.08687456   -0.17630125    -14.49646800   -4.30166831    7.17792522     20.80071894   15.68444614    9.86470144
    1    0.45944766    6.64417357   -0.63961860    -17.52761130   -5.49072604    6.47231620      4.17954712   -2.64712757   25.17275871
    8   -4.16485557    4.48649292   -1.58227729      1.60343117   -9.55707608   36.95615274      3.42036695   10.77592609   -1.43054039
    1   -4.00308106    4.06822815   -0.61345257     -8.53857409   17.69656089  -32.96668408     13.96791359   -8.48518165  -11.98398503
    1   -3.74647203    3.74791640   -2.13069716     10.22539093   -6.29151016   -8.31311005    -12.75244025  -33.29847742   -9.85978336
    8    4.14860691   -0.85152551    2.46725094    -21.10273970  -14.37271249   22.54372009      3.41398458    3.26774164    0.44173498
    1    4.18057372    0.10525407    2.15290258     -3.37625480   18.94097980   -5.59761513     11.24996137   -6.77276225   10.41998669
    1    4.91299597   -1.20920468    1.93874511     22.20584330   -7.20744455  -20.73607940    -15.33499873   -4.14618750   -7.89403295
    8    6.34145798    6.57183128    3.72922775      9.19342899   -8.80080618    5.94062915     -0.78040504    2.35148576    0.36349665
    1    5.75969810    5.72478484    3.78052415     -3.37911651   -2.34018182    6.75409169    -17.55560916   -4.71797307    3.41109135
    1    7.00940531    6.35743562    4.49684399    -10.75066543    7.68832465   -5.44091277     -1.64136493  -19.74076747   -1.09139611
    8    6.45491419    2.13470436   -1.52363396     12.05564897    0.41766730  -20.27506071      0.04761336    3.14577301   -2.31178706
    1    6.51405439    3.14955228   -1.70659376      7.34308429    0.75915734    2.44293202     -0.83767378    6.64911064  -15.43512656
    1   -7.10508336    1.90210232   -2.21423408    -19.64098859   -3.66678880   19.73723617     -6.08943853  -18.33558006  -16.39349439
    8    2.45268696   -3.35330141    1.83663869    -46.81195837   26.73472352   17.87969633     -4.10370401    2.31592650   -0.67612441
    1    1.51425706   -2.91143936    2.11485491     34.51000130  -17.37665311  -12.99003676     -0.88885603  -25.54942130    0.92092622
    1    2.98385602   -2.57249897    2.22164342      6.97036581    5.00766531   -5.49388923    -15.63962406   -0.37429287   14.26130265
    8    6.02325585   -3.56099362    1.69896163      8.21248666   18.31230911   12.36567863     -1.58714396    4.02408158    5.88076934
    1    5.10373774   -3.75855744    2.07742754     -1.65216430   -3.91588880   -4.87214199     -2.43313414   -6.95129744  -23.78468185
    1    6.13175774   -4.28740809    0.99427912     -8.48559368  -13.33150915   -7.86584502      5.84008698    3.05351184  -12.08580273
    8   -6.81640388    4.48899007   -2.35698916     -1.04556898    5.87625548  -11.16565036     -6.61443099    3.58381535    3.12931289
    1   -6.95526276    4.93626753   -3.26988142      4.68339589   -6.52332626    2.90564948     11.49370881   15.05354282  -17.03326811
    1   -5.78806497    4.34973695   -2.33707019     -5.69773259    6.26304772    5.73575885     -6.94684315    3.57926465   -7.57015726
    8   -5.31681893   -4.19664817    4.51284330    -34.91084866  -10.37212775   33.83164035      0.59563212   -0.87738735    5.87069626
    1   -5.60514435   -5.06842198    5.03340272     12.23519472   10.81098511  -14.97772551    -12.29217137    8.09475022  -27.58793937
    1   -4.94442190   -4.61677326    3.64460009     11.13066437   -0.54636030   -0.31267350    -10.31737573   10.13004252  -16.35312567
    8   -1.21347184    3.11902652    1.14083869     -9.41575360   26.39777355   40.12002406      6.38748347   -2.52894173    4.28546022
    1   -0.54924032    2.84583579    0.46700756     36.36493158  -13.57019781  -25.57826163     -0.73260250   -4.08739412   -0.82051408
    1   -1.98340245    2.69459709    0.66474065    -29.92674616   -8.12922276   -7.11453486     -2.36705230   -5.88589740   22.35948413
    8   -5.72648286   -6.62555734    5.72296547     27.67564767   -7.39788084   -0.93983396     -8.08998105    6.88728603    1.41002870
    1   -5.09952115    6.88583490    5.49036091    -15.58911347   13.13861624   -0.82467639      7.53801715  -14.01794953   -0.18411913
    1   -5.16169099   -6.32916123    6.54066505    -11.09462272    4.38041243    4.06211248     -0.99565383   24.60101107   11.98135272
    8    0.02951730    3.95192453   -3.53229292     26.96701049  -13.21041047    6.44960247     -0.43484804    0.62343884    3.36277047
    1    0.34835363    4.04725762   -2.53579266     -1.59262111    2.08648533  -15.80116247    -31.82780125   -9.61223735    3.77372451
    1    0.88450714    3.47717025   -3.98095469    -25.36516821   19.86973456   15.89766386    -23.61502141    3.89006192   12.10165003
    8   -6.07822468    0.92725381   -3.49643746    -26.54898052   16.20750295    2.89292545     -0.36325984   -2.34866355    7.05987418
    1   -5.26188398    0.33308559   -3.28358793      9.36414112   -3.06519896   -0.02315817    -12.33405139   17.25694915  -20.47857426
    1   -5.85665691    1.17623165   -4.48538360      5.09441729   -6.98070727    4.58940146      7.22629359   -0.84279409  -18.44226970
    8   -6.85312432   -0.93964966    5.12584069      9.39111356  -36.80109329   43.66059984     -2.51866366    5.15455137   -0.44003656
    1   -5.90477868   -1.28463807    5.40671637    -18.13132126   11.96590553   -9.39523949      9.36605010    5.11657939  -31.70592999
    1    6.99122789   -1.54805475    5.84696322     11.51942766   24.85600623  -28.89145682     37.43349132    8.62545138   -6.66598994
    8    6.49246682   -3.67485680    5.73449144     13.43446711  -15.46226062  -33.64364486     -1.70307345   -8.60134123   -0.56589011
    1   -6.94977772   -3.75302182    5.16832442    -12.51058300    7.35127948   15.57387888      3.61155483  -17.59962840   -0.87634830
    1    6.01944804   -4.42461126    5.20446945      2.79768379   10.29950122   15.36609047     -0.67074275   -6.23129717   22.63320321
    8   -3.02802314    7.08938629   -2.47414911     -6.58522503   -4.57432908   -2.22304668     -2.11946568   -2.45657006   -4.25146952
    1   -2.74273472    6.10415069   -2.43207289     -5.19364281    4.41602950    5.87393930    -12.76034961    7.01310263   21.78023971
    1   -4.02974675    6.97703563   -2.20341103     17.21911082    5.37590586   -7.44186479     -2.88895438   -3.97706185   27.94936142
    8   -2.22146001   -2.73530405    3.48397612     48.34854640   23.00658766   -8.95544173     -6.23639301   -3.06672091   -1.04613598
    1   -2.65241209   -1.81621313    3.76000617      8.35658380   -6.89295491  -15.50298395      3.62420537    3.93012926    1.86789047
    1   -1.21587832   -2.40595641    3.23584239    -56.64945274  -20.30419588   14.95140677     -2.48668025   -0.35012934   -9.67099929
    8    1.81861001   -3.51049812    5.01993104    -40.68534825  -10.50384206    7.42336621     -2.21384354    3.85309265    0.76906279
    1    2.47408397   -2.76924599    4.94352519     31.32857035   24.90759226    0.93576418      2.77063536  -10.53173786    3.76465491
    1    0.98278584   -2.91431645    5.13824691      8.73326270  -11.55578110   -0.99045196     14.66923620   -1.20529613  -43.36033297
    8   -4.19810728   -3.03605812   -5.78160321      3.23725571   -5.45209359    7.28948385     -6.76809138   -2.62696929   -1.84000132
    1   -5.19934968   -2.80906473   -5.90988590     -8.06550521    2.87189471    0.67756655      0.41974193  -18.29246704   21.47839458
    1   -3.94423136   -2.64519634   -6.70083168      3.36910387   -1.03682479   -6.99935058      5.78703930   -5.34077571   13.36083350
    8   -0.87307472   -2.46678422   -5.77012335      4.06569742  -20.47859052  -14.37566418      4.03014595   -3.02334996    0.64060634
    1   -0.85594598   -3.25492133   -5.10652821      1.95266544    7.48502543    4.78118113     28.15061536    0.27549930   12.18302140
    1   -0.76600772   -3.10511647   -6.60328279     -6.76593466   18.45881014    8.35674261     -3.73110654  -11.43254386   10.54277664
    8    2.71583601    5.52012003    5.71130898    -25.62680636    0.20652077    5.44806033      8.77013917   -7.13621304   -0.38690165
    1    3.45060284    5.17212448    5.11349876     17.82163637   -5.69173445  -10.23364796     18.19778106   41.63910475    4.58740247
    1    3.25089114    6.02242562    6.42436136      0.29362130    7.48398361    2.44903512     -7.68409636  -32.36430152  -13.36836328
    8   -5.23110741    1.14371291   -5.96511693    -14.91356261   -4.55340143   -5.73020396      0.93530903    6.56099509   -2.92112271
    1   -4.64835080    1.99522107   -6.05530280      7.93785714   -1.52941795    2.57710103      7.58696419   -3.06524567    3.27416534
    1   -4.56942007    0.37822688   -6.12094711      5.39110576    5.23184929   -1.81608856     -2.87518233   -3.07372180  -13.20079435
    8    3.70469951    2.86580581   -1.10211391      9.88595203  -63.59058322   -6.98801883     -1.54247212   -4.40665639    6.14703519
    1    3.90060067    3.84757120   -0.99795175     15.54151088   35.74275195    4.90793429      5.82550945   -0.49091665   -0.26332779
    1    4.67352927    2.50578654   -1.30923538    -20.72070534   14.15878321    2.88297807      8.36826421    7.65065665   10.33302260
    8   -2.17186261   -4.75928888   -1.37562613      8.13777734  -22.87279795    9.17440634      4.34304998    2.84561126   -8.68654201
    1   -2.37107920   -3.99442045   -2.02963621    -18.73017059   -4.17277958  -18.45409129    -15.71352235   32.17787245  -24.28031251
    1   -2.53866104   -5.63573027   -1.83091284      4.36376884   20.79457362    1.09523255     14.17973105   -8.60643271    6.84472481
    8    4.35667559    5.31584217   -0.66580430    -15.43646390  -10.25335789   31.46406373      0.36301884   -2.01784468    3.31766627
    1    4.33715773    5.97099026   -1.42996300      0.39959769   23.94618811  -13.71213683     24.58367308    8.69102078   22.81705066
    1    3.68323011    5.68517917    0.04123621     19.38936111   -4.35459971  -24.18418294     -0.01139965    1.37739083    5.51256854
    8    1.13786552    4.39094735   -1.04335227    -35.91995216   17.82148622   -4.66923956     -3.06300799   -1.17962858    0.95478161
    1    1.91734767    3.86871851   -1.36330160     28.89947670  -18.92580990   -1.19251771     11.07243256   -9.98202134   -0.42381409
    1    1.43984906    4.72040570   -0.10916448      7.68178256   -6.21863607    0.79347752     -2.03805835   13.25701555  -17.33397340
    8   -6.82854706    6.58480945   -0.45340179     10.30802130   25.22149245   18.06861426     -0.57452623    2.45350119    1.29404026
    1   -6.20031420   -7.03946753   -0.89030950     -2.41672856   -9.43308713   -4.01577923     13.31356271   -0.89882449   18.95319500
    1   -7.03525566    6.03017045   -1.27073105     -1.56477075  -17.82244218  -10.81180084    -12.18286669   -9.94966231    8.73082306
    8   -3.73619723    3.27783616   -5.68136008     28.79779266  -49.57532044   -9.53099017      0.25476870    0.98866596    1.80989250
    1   -3.05695071    3.25482155   -4.88745959    -18.60517153   12.07279749   -4.63636875      5.28265955   15.66254700  -27.56631520
    1   -4.28665822    4.09699404   -5.60267370     -8.27225828   44.03680254   12.04283031     -6.95195244   17.10370086  -11.74776396
    8    3.76259737   -7.12001565   -6.64474585    -27.01145889  -11.25488171  -11.64771898      0.47143262    2.86762513    2.43039349
    1    4.75766391    7.11703639   -6.63535798     28.51506402   -6.80186582    4.03125913     30.28006537   -9.74553013  -17.08923842
    1    3.75667605   -6.10193570   -6.66220734     -1.02561364    5.05582285    5.31698408      7.17687302   -5.81039165  -19.66007437
    8    3.67424041    0.06633606    6.84191643    -25.87034855    0.48945240   18.07744888     -2.19679848    0.79379163   -1.23879868
    1    2.72610441   -0.09598573   -7.09591714     15.06631070    2.69621622   -7.88482627    -26.72700795  -20.48436498    2.73052656
    1    3.69004752   -0.68233617    6.12501674      5.37710219    2.05494619   -2.39672283     27.83759357   15.47729399   -1.97786502
    8   -0.30075859   -0.19164751    4.81291902      3.42542823  -17.34306350   -5.44679344     -8.43631286    0.71315774   -3.78852143
    1   -0.57349548    0.11524699    5.73170403     -1.38463608    4.38307864   17.77116030      1.55880601   12.27729276    9.01106326
    1   -0.22374611    0.74203696    4.41422949      0.19907168   17.49437421   -8.44151146    -27.70927820   -2.59521025  -25.49123907
    8    2.03969304   -3.54469061   -1.81924425    -34.25805061   23.88147987    3.31413340      1.55224807    0.63589316   -1.99354956
    1    2.85658258   -4.08492243   -1.91899536     39.84659872  -23.42024113  -13.19492714      4.62395137   21.22296254    7.37831164
    1    2.07656678   -3.53393261   -0.80926518     -1.16428411    3.52789700   12.78673863     18.13073510    9.60069354  -14.22352345
    8    1.96184980   -6.64660827   -3.09320127    -15.06196112    0.52732836    5.04134183     -0.72539117    0.54445502    5.33729722
    1    1.47895706   -6.85682156   -2.19343774      4.16949155    7.14593193   -3.46474971     38.98233556   23.01602735    3.35448183
    1    2.91767240   -6.67756568   -2.73297466      8.05637097   -4.96793205   -2.01637989     -9.48564252    5.10154822    4.61646763
    8    1.55963691    3.19992208    6.83892200    -37.65052058  -23.25231186   53.64875105      2.19519079   -8.54068323    5.90109728
    1    2.06482017    2.73930062    6.13976071     29.06565703  -15.82366011  -42.79856056     -2.23701194   15.07137830  -20.31253476
    1    1.71944859    4.16305904    6.67585635     12.67580839   36.15629110  -17.37534004    -20.50724580   -3.15304800  -12.83827610
    8   -6.66041936    4.97483098    5.86517313     -5.23252357   -4.03501942  -10.07368578     -0.41766363    4.89666056    3.16016539
    1   -5.76788040    4.84586768    5.39730700      9.80599588    4.95603593   -2.59164455      4.60799816   -4.31592542    4.93361229
    1   -6.79620854    4.02338196    6.16683230     -4.27198608  -12.82141404    4.41889063    -27.87199209    2.07317431   29.70406659
    8    2.55881187    2.27956595    4.20632470    -11.28632924    7.32882438   19.78415205      4.53214773    1.99524529    0.15931188
    1    1.52887270    2.18211504    4.22084835      3.45721115    1.80931437   -1.33233369     -5.32803833    2.82187171   -7.27754620
    1    2.65276006    2.05314575    3.22824569     12.07312118   -4.90108882  -17.73047437     -6.00591789  -31.82856925   -6.99443593
    8   -7.13554112    2.71367169    2.03563184     -1.27649242    9.03293307    1.76798569     -1.74883199   -1.83169611    1.45823040
    1   -6.76476662    3.68040538    2.10275339     -1.94785921   -5.26467147   -1.36329469    -13.03773414   -7.31648169    1.61147662
    1   -6.97636073    2.55656051    1.04506066      1.06505129    0.10274313   -1.65497663    -29.72388807    0.45958319    4.75789632
    8   -2.75080555   -0.32097235   -5.55034287     24.16058829   -5.61205595  -10.22285774     -0.17996929   -4.32840003   -5.26992589
    1   -1.96033405    0.29648252   -5.75459980     -8.52776455    4.62754422   -1.38539050      7.93174016   -3.17164828   10.66739196
    1   -2.16824732   -1.16959893   -5.70457527    -10.15837903   -1.14663558    2.25423920    -14.83202686   -1.24799436  -14.35406522
    8   -6.28434696    5.34416072    1.95431464     -3.32779411   -2.15434912  -11.00993580      1.66123814    2.47207760   -1.71442104
    1   -6.86326734    5.87113042    2.61196270     -7.31277062   10.64652873   -1.71979768     -1.51249749   10.13698639   -1.09808243
    1   -6.52611735    5.75382933    1.02062558     -0.62143824    0.55089621   11.91209339    -13.00144391  -17.50206926   -7.43964310
    8    2.11381110    5.33644960    1.20555383     36.43795805   38.56155664    2.13632921      5.33734730   -2.98440281    5.20466948
    1    1.32474069    5.98244080    1.40319526     16.83948576   -3.91163983    7.94763945    -23.14634152   14.62824672  -11.06205843
    1    3.00353415    5.93123704    1.37153433    -51.21800614  -24.52469841    8.64125416     -0.82174150    0.55228379   -1.53328613
    8   -3.46888759   -3.26588752   -3.21979815     -4.62746394    5.42489366    9.03315597     -2.97031521    1.23879204    0.88154601
    1   -4.47707660   -3.41725232   -2.95961812     12.84477160    2.75357626   -3.24055633      7.04882323  -19.30430696   -2.28060372
    1   -3.54053138   -3.22263914   -4.24541733     -5.50879557   -4.06843666   -9.77232399     -5.10458782   24.93157002  -10.91738615
    8    5.88226926   -0.37315988   -3.91373273      1.11396779   20.50050133    5.30412276     -2.75494388   -6.13667528    0.43729434
    1    5.45272798    0.56638047   -3.81309096     -3.98072435  -14.04674368   -8.70964261    -14.80445600   -9.12546849   -6.99879756
    1    6.84748652   -0.01027115   -3.77838525     -2.45279061   -6.07507131   -1.54447122     12.96173882  -34.72202620  -13.88865692
    8   -4.31656102    3.02891305    3.90876349      0.56451993   28.64549342    0.01519953     -5.29917428    0.83214963    4.02190583
    1   -4.85039987    2.22878773    3.56446384      5.58152303   -9.06666543    5.46273640     14.85192567   -2.57488107  -20.06981883
    1   -3.65314514    2.73396156    4.65871328     -6.34863917  -14.68573746   -7.47390476      4.16765780  -11.86733887  -10.70362346
    8    4.95550071   -2.20309870   -5.74350655     30.62642992   12.68247705   28.87416835      1.42761526    5.60144002    7.88058464
    1    3.96985837   -2.06041797   -5.86880573    -17.86472614    3.51146649   -0.78854891      0.21312180   11.96268516  -30.68791863
    1    5.18828772   -1.47875872   -4.99986789     -8.41015857  -17.54368024  -21.77376334    -15.32390790    8.00365114  -13.65291661
    8   -5.89361405   -3.55633727   -2.31531541     15.72219748  -21.22177168   28.69568867      1.49012932   -6.61067890    0.22116413