 BEGIN_INFO
   #
   # This is a XCRYSDEN-Structure-File
   #
   # aimed for Visualization of geometry
   #
   # Launch as: xcrysden --xsf HICOLM.XSF
   #
   #
 END_INFO
 # estrutura final
CRYSTAL
PRIMVEC
<<<<<<< HEAD
      18.58063678       0.00000000       0.00000000
       0.00000000      18.58063678       0.00000000
       0.00000000       0.00000000      18.58063678
PRIMCOORD
  585    1
    8    6.39051977   -0.64526237   -1.00663208     10.12322769   -8.60947520   -4.56112277      1.51968846    2.60322553   -1.48722693
    1    6.95862753   -1.26531434   -0.50974723     -8.07705872    2.50049643    2.44212171      7.41566825   14.49210979    2.91488922
    1    7.04269765   -0.20773291   -1.59396174     -4.46032953    7.47619148    5.79428218      1.09181280   18.91646692    9.52737396
    8   -7.24835741    7.68083919    8.15936853     -4.49318909    3.71868438    2.27157801     -5.30322178    0.67521602   -3.34814769
    1   -6.39138531    8.14747816    8.19856195     -1.13439512   -0.14245885    2.67643769     -7.38949965    5.02144555  -13.64396338
    1   -6.99735669    6.77407740    7.92151632     -1.32403270   -1.31824197   -0.15646247     -5.73024237    4.70661682  -15.54265744
    8    1.92608704   -2.66463973   -8.16118091      6.08804851    3.38374042   -4.55764135     -5.55477783   -0.73831188   -3.78726250
    1    1.63228421   -2.51130080   -7.24048707     -0.53000978   -3.47728080   -1.93322021    -11.35963595   -1.95719590   -3.88292427
    1    1.78581809   -3.60634133   -8.29863648     -4.38842772   -0.73850458    4.63549105     13.32158685   -0.52231780    3.47657796
    8   -5.37086664   -0.40656184   -0.53019597     -3.42106581   -3.06988757    2.92883856     -0.92235956   -2.65572786    0.53223179
    1   -5.85475024   -0.23425817   -1.36004378     -0.24251626    4.76174060    1.80803959      5.34923843   -6.05948352   -1.04945822
    1   -5.20258757    0.48707131   -0.17333090      3.34612105    4.03539415   -4.30948121    -11.53503189    0.37497937   -2.95953888
    8    2.36827008   -9.27082495    9.14660191     -0.35082662    9.39052562    6.42464350      0.34792979   -3.64770603   -0.38126290
    1    3.06836595   -8.67959199   -9.13835349      3.58048469   -2.78427464   -4.22336000      8.43598224   -8.71217974   10.37362161
    1    1.63181729   -8.98949234   -8.85396090     -4.81843540   -7.27788370    1.74827140      0.19829606   -1.38645690   -4.16025016
    8   -5.04368963    8.54361065   -3.17579182     11.97940290   19.03787743   -3.25792788     -2.18557010    1.64055712    4.17666790
    1   -5.46554782    9.06156366   -3.89119101     -1.15152051   -3.91581639    6.72878201      3.03810735    9.71883619    3.05958600
    1   -4.46348190    9.19345505   -2.73131335     -8.01370660   -3.35381254   -1.28162570     12.98143235  -14.24993383   -2.99702142
    8   -0.64449744   -2.78159229   -0.95843898     -4.40159607  -24.95769242   -2.58941127      0.05726950   -7.71406539   -1.56121978
    1   -0.23105855   -3.62930946   -0.71079031      4.52583543    8.79670632    3.70209459     -8.73757729  -12.62233624    2.42602094
    1   -1.13224792   -3.07814481   -1.75053761     -0.13439275   11.05702933    0.21015737      0.19901366   -6.30359298    2.69445387
    8    9.24583490   -2.21389936    3.20587635     12.62295234    0.70611842   -4.53686799      0.91945275    2.07410745   -0.66278157
    1    8.50632233   -2.26888436    2.58901963     -5.28975452   -1.57477546    5.30725466     -4.11910905    8.02294121   -2.54576859
    1    8.86051208   -2.46210996    4.05597944     -8.15636633    0.42348169   -0.98682762     -6.36086579   13.86018522    0.65992836
    8   -3.68582708    1.17221042   -7.62862705     -8.87782664   -6.25881396    0.09946767     -1.34990227   -6.69179391    2.46710947
    1   -4.61281392    0.99445510   -7.40496342      2.30215571    5.96554619    0.68953401     -0.25020445   11.45008542    9.81071283
    1   -3.56090234    2.10767902   -7.38909076      3.12621811   -1.15463482    0.71427469     11.58591545   -2.76039149   -9.46154784
    8    6.24149464    2.31868784    0.38408237     10.09991059    2.37745284    0.51435335      2.03660201    3.72888977   -3.21075720
    1    6.55200643    1.59278562   -0.17799391     -6.27254729   -0.51121201    3.19607855      3.49775665    1.55115063   -5.33544896
    1    6.89742046    3.01146472    0.19321030     -2.16892332    1.78207955   -0.58935266    -14.63125485    8.32778567  -21.57044333
    8   -3.73720749    7.88249920    6.37795628     -2.06239095    7.03281538    2.60038683     -1.95831407   -2.40450495   -3.05555781
    1   -4.24803315    7.27645349    5.82996984      0.02665879    2.33309686   -3.76664051     -0.31378820   10.50917535   -8.84893653
    1   -3.71462758    8.70730675    5.85346395      3.48995825   -7.76470416   -0.21640696     18.53999312    2.59205807   -5.02764670
    8   -6.81317980   -8.87968214   -4.97705096     11.26130485   -6.50883080   -2.28326221      0.42644614    0.12417289    0.28978382
    1   -7.47203489    9.21092464   -5.49994149     -6.32990477    6.51693060    5.99166231     -6.16504450   -3.92220077    8.15024889
    1   -7.33454963   -8.25945069   -4.41518638     -5.29497407   -2.46743819   -7.12545297      2.59906390    1.37730830   -2.24966960
    8   -9.24026130    3.04841703   -3.44804379      7.22754923    6.44336824   -4.31730494      2.44075554    3.52018606   -1.61523335
    1   -8.54584812    2.74340949   -2.83458676      1.30450368    1.94076387    2.49859801     -4.36302996    0.89090481    6.38535178
    1   -9.22948880    4.01196933   -3.28169336     -4.59493457   -3.21104261    0.09020953     18.39801656    7.90061161  -15.83726718
    8    9.03992865    0.76492604    3.54718101     -3.24757688   20.05167524   -1.48259625      4.90680471   -2.56384326   -2.07758056
    1   -9.17235050   -0.02624161    3.13705604     -0.26572520   -4.40514933    1.84418507      9.21038789    0.57094819   -0.53481441
    1   -9.12438958    0.77626533    4.42243199     -1.48086595   -9.78626500   -0.02627484     -7.18422503   -4.34218790    3.64666490
    8    0.13268196    5.55946931    7.53723442     -5.08939366   10.66532742    1.98914737      1.19693469    3.40246782   -0.05955967
    1   -0.76558938    5.91505704    7.69119140     -5.85315216   -8.96618625   -0.64457886     -4.69862129    0.15604128   -2.76258588
    1    0.64697697    6.11184358    8.13327761      7.96874918   -2.67747431    1.33744827     -5.50861844   -1.88640244   -1.96702219
    8   -0.27687979    0.46594327    1.73227451     -1.76300237   -5.82598767   -0.11630620     -3.83454185   -1.69572146   -0.18575982
    1   -0.40983895   -0.47302419    1.94116330     -5.65424048   -4.71952683  -10.84084243     -5.78282645   -6.58705046  -16.47100500
    1   -0.07174211    0.78718863    2.62406859      3.15575852   16.72731404    2.69153555     -2.43345512   -7.81201621    1.67980128
    8    0.82214212    4.57571046    5.14907127      1.51310306    3.23545022    1.13166881     -3.67869194    0.62106913   -5.25106405
    1    1.79124695    4.44300831    5.16617725     -2.06182561   -2.16416907   -6.33548079     -6.77230822  -13.99125728    3.04865977
    1    0.63833394    4.89460909    6.06155920     -1.00117397   -2.22961956   -4.05718087    -11.14231430  -22.15404420    5.92100308
    8   -7.47045925    2.41826098   -1.51545809     -3.16091599    9.30710135   -8.13354728      2.48663873   -4.26180230   -0.54836900
    1   -7.35854631    1.49789458   -1.83782797      1.69288211   -2.39736168    3.81375425     10.67970886   -6.22641171    9.49415380
    1   -7.33474058    2.32550847   -0.56452542      0.29612761    1.38458007    3.41236658      8.49314584   12.26754345   -2.61404116
    8   -6.89682248   -6.67949280    8.41017576     -1.84811107   -4.67664644   -4.27448466     -2.77089499    2.01903174    1.88882963
    1   -6.86456316   -7.56117533    8.01505286      2.03485821    3.37672251   -1.51918952     28.34482844   -0.97890438    7.48234470
    1   -7.27571225   -6.85851655    9.28476658     -3.58877379    5.63433842    1.18475546      1.26509014   -2.72057512   -2.84164241
    8    7.71353260    7.04871468   -5.05551682     12.24905132   -5.76587725   -4.38629922     -0.72521352   -0.36139298    5.82045672
    1    8.53109114    7.42148046   -5.43333299     -3.59846463    0.02736238    2.62797306     -3.63604773   -0.56313406    1.21180640
    1    7.84832293    6.08618712   -5.19121809     -8.01653677    8.41459190   -1.08779571     -1.72929861   -0.34543705    3.69442370
    8   -5.35330376   -5.75050191   -7.27600781    -11.14995183   12.64858010   15.57526323      5.26410567    2.82543206    2.49934776
    1   -4.99669097   -5.11842140   -6.62155068     13.38493791   -8.95495491   -3.98557179     -1.13107717   13.87984572  -10.54871620
    1   -6.29293287   -5.50096952   -7.19947988      0.37778467   -9.97814461  -11.18175831      0.13879141   -8.68083012    2.27348706
    8    2.54100547    6.62437302   -1.94398142     -0.51285637   -0.41767039   -4.08717152     -0.92943723    0.08588085   -1.91782359
    1    2.53085668    6.04039570   -1.16724651      3.46604950   -2.89485334    0.70283370      8.88566069   -1.14706230   -5.58879341
    1    2.44288594    7.49100154   -1.52675788     -0.82485488    4.69388996   -3.36324725     10.49414110    0.80466015   -2.30148858
    8    5.31637747    8.21781051   -0.55321914    -12.81206493   -0.13035488    6.39278308      0.92905805    3.96877888    1.43571686
    1    5.39318705    7.25505679   -0.66215640      5.31888356   -5.57239492   -4.22845703      6.34438327    0.15260177   13.86449340
    1    5.55022945    8.53881184   -1.44149432      3.64906074   -2.98763105   -6.42286230     -3.14441890   -4.83028567   -2.14891629
    8   -3.29064757   -5.99263986   -3.16259902      8.56189636   -1.92244156    1.49844833     -0.34099132    2.08317336   -0.73308270
    1   -3.50459252   -6.69985596   -3.77889117     -2.33744102    2.24801889   -0.90793191      2.85406374   -4.12315298    8.64666176
    1   -3.10185052   -6.47750285   -2.34305598     -7.16005425    1.29902566   -1.82791746     -5.97484408   11.15283568    7.06052925
    8   -2.70109970    3.70456464   -6.97421780    -11.67778320   -1.14749430  -14.78847988     -6.01565083   -0.37623621   -2.90170327
    1   -2.99018860    4.41991372   -6.37300256     10.12695647   -7.16328760    2.15163847     -7.85538057    1.96398074   -0.84325373
    1   -1.94097104    3.28864877   -6.54938713     -2.16474419    6.81394466    8.60948540    -19.05319253   -9.86520134    4.55829608
    8   -1.13284010   -8.96383746    2.55599988      1.16774624   -6.65567560   26.61367616     -1.15956191    2.85237641    2.92388047
    1   -0.29630652   -8.47511973    2.69407067     -4.81892356    3.23663120   -7.18420714     -4.00167711    8.77760535   -7.80541980
    1   -1.57582898   -8.79215479    3.41874283     -0.93581039   -8.71709275   -8.71511371     -2.81879378   10.54029538    3.02386688
    8   -4.25226979   -2.86335368   -0.92869571     -5.19399525   -0.12173576   -4.91248989      0.33788263    3.81974770    4.94477996
    1   -4.90719149   -2.15162379   -0.82213173      2.12904967    1.85168302    8.64562577     12.76112170   15.75900936    4.37723250
    1   -3.72094629   -2.52634047   -1.64880888      5.34534622   -2.81088694   -2.09835996      4.07946975   -9.87173861    3.92413032
    8   -2.37481939   -5.65706708    7.50006631     -2.19527821   -6.31379675    3.50608648     -0.45277385   -1.07354883   -2.59264360
    1   -1.52274485   -5.86752104    7.92587051      0.36043287    4.35185052   -0.17588570      2.89704287    0.25056760    4.39268756
    1   -2.18579906   -5.79369725    6.56369202      1.50907739    1.71875779   -4.69157785     10.92748730    1.20057645    4.91998543
    8   -9.22012753   -8.95760407    8.57515893      0.23190845   -2.77290893   -1.88552566      0.89375084    0.07901945   -0.85221641
    1   -8.86570552   -8.55642966   -9.19986177      2.08399980   -2.05341857   -0.86074078     -4.15118490  -26.18177775   10.43405759
    1   -8.61727092    8.87436902    8.38872915      1.43610672    1.76019601    3.56092210     -0.34081638   -1.60313722  -15.17656120
    8    5.76734887    3.95443542   -8.37479646     -4.00216406   -3.76182667    7.29390090      2.97707874   -0.71029316   -0.66664258
    1    5.37855630    4.13594003   -9.25692582     -1.85056565    3.03849354    4.55344309      6.51256675    3.99747654    1.03123446
    1    4.98039141    3.93216789   -7.80141035      4.30769913    3.40650930   -7.17636964     -4.35775721    6.71842656   -2.03289457
    8   -7.86084271   -4.58404358   -6.62367589     -3.60241594   -1.65766239    5.87931151      2.02196820   -1.93591976   -2.22232180
    1   -7.83789788   -4.59837728   -5.64426348      4.19176283   -1.46603626   -4.66296828     14.62908649    1.87987008   -0.79983793
    1   -8.08094071   -3.66863207   -6.81940187      1.52997658   -0.30299969   -1.19451226     16.30940161    0.06206047   -2.93137589
    8    0.55253169   -8.71834259   -7.51537989      2.86666818    4.52456924    7.31528536     -0.94555341   -0.58873710    1.01904875
    1    0.50936080   -7.77196549   -7.29695972      0.97349068   -1.11929465   -5.65512829     -1.62688375   -1.68686174   -0.24155495
    1    0.42728008   -9.12758838   -6.65174855     -1.25319018   -2.97789219   -5.02962781     -7.21646835    1.57884916    3.46232249
    8   -8.90598500    2.59956450    1.12606277      7.03975007  -11.98262669    3.67014902     -1.91873535   -3.24255318   -7.69830233
    1   -8.83823642    2.54801943    2.09218827     -0.03020687   -3.62591971   -8.45808020      1.45872080   16.58359614   -4.32874340
    1   -8.66526966    1.68349057    0.83772768     -3.43837001    8.87222572    6.27601929    -13.09172229  -11.69433182    8.39545760
    8   -3.75649727    5.52026243   -5.18298587     -0.31310858    1.32862401    4.16385445      3.89646875    2.56351167    0.82281360
    1   -3.52807395    4.71176965   -4.68064743      2.19914129    1.72651897    0.96972088      8.67441028    8.56113369    1.85931038
    1   -3.97604109    6.14414630   -4.47585991     -1.46316560   -2.38164751    1.20010392     -2.44186430    6.31020365   -3.36528159
    8   -8.09469794   -5.49435897    5.96980958      0.32271207  -10.17647946    3.06912919     -0.48339814    0.46235038    1.38440592
    1   -8.47099558   -4.66208058    6.31114307     -1.30965256    4.19397414   -3.65500370     10.96415645    7.07591960  -11.53141556
    1   -7.77926209   -5.91197335    6.78596335      4.44382074   -0.59946416    0.68470882     12.28058917   13.82005452    9.40530826
    8    2.92755807    6.70118030   -8.92709914     -1.27309714   -2.09480603    2.63517687      1.66262506    1.51020150   -2.82878297
    1    3.29200333    6.55812648    8.76533916     -0.10809549    0.44149315    2.32849640    -10.33853528   12.98640354   -6.78243826
    1    2.68489667    7.64230243   -8.95766928     -0.38329357    2.15582703   -2.24045398    -14.65904470    0.01534119    4.53025057
    8   -2.34933364   -1.71907919    7.93976635     -6.29516126    6.20517516   -1.31412378      2.10203546   -1.34160183    7.74296675
    1   -2.40766187   -2.41261026    8.60314018      1.37330171   -7.69011935    4.43071280     10.81130027   -3.92729750    4.40482691
    1   -1.53034624   -1.25448182    8.20242212      6.72323893    1.49494557    3.65484593      1.81018939    1.57892534    7.35756597
    8    0.33534788    1.49028626    4.09750163    -11.77007267   -0.97651160   -6.91160194      0.25545388    1.92341347    5.66262727
    1    0.45429192    2.44079844    4.22053568      8.03002012   -0.44058224    5.95009671    -20.70751733    2.03611887   22.93149168
    1    1.18053511    1.09785901    4.33799186      8.49382037    2.90677640    8.65811306      5.53665426   17.74141183   11.44352718
    8    3.49461417    4.18083848    4.48543761     -9.72619349    6.21906718   -0.35148164     -0.09513932    0.71260539   -0.59330156
    1    3.85957845    4.67352067    3.71761323      6.01002842   -6.16465859    4.19901039      7.86103496   29.36230784   26.71906961
    1    4.27964667    3.94736377    5.00048842      1.43390875    1.06046155   -0.98314862     -3.81388276   -5.47182344   10.16852201
    8    3.83833368    0.39131007    3.03694069     -0.49745637   -1.58562318    2.59348526     -2.18192128    2.67050164    1.76273645
    1    3.90427336    1.23321107    2.56232190      4.92047264   -2.60926939    1.38336180    -18.63139077  -14.25517543  -20.21468278
    1    4.75251933    0.08973701    3.14076118     -3.98135720    7.93217699   -4.99733558      3.62313154   11.41827778   -3.82494682
    8    5.68133692    3.36942036    6.02063180      2.73410527    4.57597082  -12.03338941     -2.80097623    4.93911052    0.10480113
    1    6.47211038    3.92973529    6.00944035      0.88368398   -0.46324701    2.56133010      5.83653413    6.86412581   -1.62532454
    1    5.78728636    2.88227494    5.18805987      2.04273443   -4.57666778    1.20638817     -9.23493381    7.93482935    3.66699170
    8   -8.22709320    2.89889917   -6.13811609     -4.99956931    3.80819475    6.92522573     -1.61438706    0.05304200   -1.64466282
    1   -8.72482330    2.99834868   -5.30642312      4.42488483   -0.20801193   -0.22089881      8.90280041   -8.92940410    5.56744361
    1   -7.57486759    3.64330772   -6.11159314     -5.91508562   -8.00412974   -1.21817168      5.22913101   -7.19204392    4.15058506
    8    5.27619128   -9.01608599    6.47760664      1.20668813  -15.11754516    5.58572061     -1.01002923   -1.41933542    1.98628971
    1    5.50650734    9.07500480    5.66186219     -1.56598771    4.61233123    1.82282479     -3.97041164  -23.95614918   23.07100302
    1    6.11085920   -8.53927639    6.70497271     -2.05025272    1.78444459   -1.96683336      9.97284429   -9.81252042   -4.57849204
    8    1.06809894   -5.96676307   -7.07676540    -14.61600825   -0.85865062   11.67767848     -6.02604134    0.95207622   -1.70418623
    1    1.62297921   -6.00298661   -6.26367448      4.15046090    3.11111017   -8.37266889     -2.95941067    8.57523002    0.15104958
    1    0.21647078   -5.66941078   -6.70876813      3.92317550    2.66077992   -3.01322001     -5.51356136   -2.05338152   -2.08275456
    8   -1.12985887    1.52346711   -4.94469685     12.40964863   -5.86134163   -0.58294918      1.01186356    0.19207044   -1.92949930
    1   -0.37114186    2.02895216   -4.61190452    -10.02551484    0.99256768   -0.98312093      6.84185844    0.04506485   14.73859071
    1   -1.88543055    1.91625350   -4.47027138      0.19906043    5.03702290   -1.13700875      0.87794737   -4.79154741   -8.78067991
    8   -7.58127279   -4.52529024   -1.15104170      9.01144604    0.29956356   12.52713748      2.04478532    1.12674195   -1.48776677
    1   -6.86955111   -5.16780281   -0.96803545      1.38210999   -2.05993128   -8.91784671     -3.36459612   -4.29580497  -13.68745312
    1   -8.00976731   -4.51039876   -0.27662429     -8.72067743    0.47054539   -3.20758490     -4.40619191  -14.87438530   -3.60979824
    8    2.44888572   -2.51188493   -1.64432802     -1.06962455   12.31141647   -5.31113297     -1.22248009    2.78974219    0.17262824
    1    2.91876350   -3.28678350   -1.31829064      7.23341618  -14.06535800    6.52634796     -4.25941021    5.27049675    4.21771572
    1    2.65512996   -1.85276850   -0.97103666     -3.83043171    4.67722808   -1.22768055      4.40798783   12.28847105    0.63796351
    8    3.82288428    6.78641345    6.92136610     -1.52396503    8.88821339   -4.71992579     -1.87255807    3.75372131    0.02516608
    1    3.38957172    6.90514442    6.05651501      0.59992033    0.62874429    1.92276094      2.02032048   11.01683634   -3.40331515
    1    4.39476572    7.56514066    6.99004488     -2.81295085   -1.21567733   -2.65828462      0.50918986   -5.12176507    7.68503105
    8    3.39769559   -4.78691104   -0.55193790     -6.64314356   19.31834731   -5.72706047     -3.76032805   -1.86431792    2.71030539
    1    4.11315550   -5.42230759   -0.66853045     -6.24762856   -9.37232937   -2.97845143     -2.43731041   -0.69567422   -2.97599788
    1    2.56797608   -5.26590955   -0.68135406      4.46232736  -13.42372199   -0.68797896     -4.44513569   -4.92002133    0.37173197
    8   -0.32698705   -0.34805001   -6.91442587     -2.49740377   -8.22855016    2.93129701     -0.95088937    2.77952120    0.02135916
    1   -0.01787454   -1.13497567   -6.41615210     -2.24552636   11.01191580   -3.72329673     -7.61143566    0.04534639    4.35561016
    1   -0.80593208    0.17862281   -6.24768253      5.20352539   -0.54190493   -2.10531147     -7.17541192    2.63093628   -5.66804019
    8   -6.03540641    7.08531223   -7.55172598     10.44053044   29.70251416   -6.17471782      1.43286717    2.57358217    0.71403434
    1   -5.09588782    7.14925284   -7.28666280     -4.77108527   -7.16111082   -1.00874901      7.80980819   -5.54681098  -11.12419991
    1   -6.02180561    7.69992127   -8.30641122     -7.88172056   -7.96470946   -1.14256600      9.45145285   -3.12363714   -5.00207987
    8   -4.29417472    2.64762649    5.02210735     -5.98724445    6.84029398    7.47162864      4.24745665    0.53723164   -1.32604761
    1   -3.52245641    2.05952339    4.90390212      4.77356856   -4.00380299  -11.87210204    -13.65032736  -26.48449823    0.42180076
    1   -4.55043018    2.45735032    5.92694931     -4.14856882    0.95209887    3.13717904     -7.10067390    6.77662207   -8.52964471
    8    2.56099436   -5.81667939   -4.84576597      7.28781920   -7.41786985    6.53821585      3.90034533   -0.71791426   -0.61644082
    1    2.93755419   -6.45566435   -4.21135397     -6.12015422    7.36579667    0.52203355     -1.33756386   -5.07575740   -5.80391852
    1    2.11650533   -5.14740928   -4.26329975      3.34731763   -7.71465097   -5.86522406     11.58830352   -2.89099407    6.58501785
    8    1.16893685    8.09917881    2.02437269    -11.60073440   -9.16786677    0.67834671      3.39765533   -1.77175896    2.43255378
    1    0.99156826    7.16274289    1.81124382     -0.31395001    5.83646108    3.50232939     -1.45258716   -0.71740546   -0.17470345
    1    0.28965814    8.41347299    2.32487777      8.49026897   -1.29008845   -5.53703270     -2.20989908    3.41315866  -12.47305026
    8   -8.83982907    5.55357669   -2.44022566      1.44663720    0.09432415   -1.76161555     -1.79349612   -6.69618738    0.38740123
    1   -7.89578961    5.44791891   -2.25275437     -1.28651988   -0.41396963    3.06722674     -4.14741461   -2.99701144   -1.55187536
    1   -8.93050839    6.50818497   -2.51632586     -2.47401205    0.74846127   -0.26026236     -4.91724601   -7.38376852    5.59089264
    8    7.04756326   -5.81098073   -9.17322694     -1.67246651  -10.67005781    7.21878663     -0.90365022    0.02224389   -3.95645003
    1    7.54152204   -6.33125686   -8.52268808      1.67273483   -0.30557073    2.89414022     -8.06093849   -8.76383668   -2.78129664
    1    6.45936376   -5.28800069   -8.60668756     -0.26088859    5.75581110    2.56077127     -7.09886590   -8.18578885   -5.46408922
    8    2.90059767   -7.96707853    6.71136883     -4.45359094    2.96999187    1.99987611     -0.27731551    0.16774487   -0.20437492
    1    3.75998180   -8.43395429    6.64846345      2.26535613    4.28094820   -4.80392064     -0.64920435   -7.04802758    0.29262950
    1    2.38688269   -8.56812362    7.26629083     -2.55590709    1.30984707    2.16978598     -0.78285569    7.43451259    0.92007287
    8   -1.44200000    6.53295640   -1.33470612     -8.38384216  -10.92091800    3.11032460     -3.18036765    0.20240827    1.21328632
    1   -0.53687967    6.40422539   -1.62249426      0.98029780    5.40748735   -1.06479099      2.01859385   -5.97190867   16.12329883
    1   -1.56730098    7.49104168   -1.31260802      7.47290869    4.05952726   -2.37771691      6.73998712    1.44404247    8.48293796
    8   -6.05186407    1.95330795    2.97576122     -8.43035491    3.60595364  -12.26114749     -2.30857003   -1.24024723    0.11453726
    1   -5.56505505    2.27659671    3.74987390      6.41414286   -7.63701534    9.13653017    -23.75343724    4.28812585   10.63426128
    1   -6.36127072    1.07066369    3.22757455      0.89689118   -3.60710181    6.16781032     -5.70226314    0.67217401   -2.05842101
    8    7.64350121    1.97608608   -8.25792192     -7.66733997    5.14649999    4.95680624     -1.37774886   -4.57458378    0.97994516
    1    7.10239752    2.78227914   -8.37988076     -2.06484353   -4.41148325    2.55413138    -11.31182099  -10.43352050   -1.05245773
    1    7.40058252    1.67296944   -7.36184592     -1.83288844    8.15022507   -4.40270788     10.27677532    0.99654479    4.35363424
    8   -0.97990258    2.42921826   -1.95448254     -4.38323117    1.32812667    6.62335225     -1.81591675   -1.87581711   -0.94299643
    1   -0.77027866    3.03107817   -1.22570477      2.15589212    1.15616942   -2.35844848     13.62475186    3.40477943  -12.90780892
    1   -0.78078569    1.56569733   -1.54836161      2.69461696   -0.54394605   -6.56421670    -12.65918181   -2.19513671    3.36942595
    8    3.62788536    0.97050338   -3.60967506      2.46344108  -14.89995071    7.29460193      0.20190602   -2.89573402   -2.62031922
    1    2.77055142    0.71371737   -3.99327393     -1.12776780    5.19838230    3.44070925     13.98611665   -4.52495765  -17.80495750
    1    3.86783209    1.77464550   -4.10686702     -6.89272891   -1.04487223   -6.53654984      2.61278244    2.66263076    3.86029087
    8   -4.22036297   -1.06737852    2.84178850     -0.25532804   -5.50298245    0.75640923      1.07559136   -0.11697172   -0.28425902
    1   -5.15428981   -0.94335644    3.08693009     -0.44682381    0.46820904    0.12692100      1.88737682   -9.48518732   -0.20104118
    1   -4.13107763   -0.55973413    2.02956977     -1.12244632    2.07620211    0.47706960     -1.55057073    6.92180180    3.00663889
    8    0.58889242    3.49445848   -9.24277700     -2.77918499   -6.35111094   -9.44089971     -0.55735216   -5.79866356    0.49968933
    1    0.39683463    3.90199519    8.47099338      1.37075805    6.45298691    9.70999078      7.24157811   -3.80243565   -1.42174368
    1   -0.17143397    2.91703135   -9.11196089      0.01534252    1.30622772    4.63602789      3.73547191  -10.80112991  -11.66100918
    8   -5.03707680    2.14574669    0.53276585     -1.87561507   -7.53689153  -11.26214043     -2.73274909    5.71883021   -0.74063632
    1   -5.44241608    2.08567075    1.41259835     -0.85026380   -0.71395215    7.85021109      6.15080186   -2.23769049    1.55666468
    1   -4.64703198    3.04337674    0.54355272      0.75799427   -0.36178756   -1.73274047     18.16429059   -5.20130764   14.58970882
    8    6.80641756    2.53335214    3.32930337      0.12122127    5.42480356    3.63968732     -0.06077068    2.70935038   -1.93273895
    1    6.68916612    2.40049125    2.37354078      0.47585255   -0.51574110    2.38962401    -10.27453850    6.56168570   -0.52568265
    1    7.65969701    2.10871500    3.51637374     -1.64281329   -9.98738595   -5.83208824      1.94234940   -6.82616019  -13.69455245
    8    5.08549947    8.31516658    4.12655910      0.00679429   10.33214862  -12.52969392     -0.75998822    1.10342537   -2.51565860
    1    4.26296293    7.78965643    4.08974465      0.43551308   -3.43539658    4.74270310     -3.93035977    3.02617758   -1.41934926
    1    4.76667765    9.18704361    3.83271230      0.47624244   -2.43817381    2.14691212      6.29594778    0.96109312   -7.76036464
    8   -9.25604090    6.67938759    0.90858005      9.02337912    2.61695571    0.43319862      3.57875737   -2.84042408   -2.80137512
    1    8.87237313    5.82905284    0.84893162      1.26244554   -2.79024342   -2.41730017      6.39921985   -3.44453401   -2.76709646
    1    8.68083581    7.23025415    1.35491940     -7.00825157    0.10388108    2.54196889      0.17684191   -5.48703580    2.40722125
    8    2.43792844    0.19732542    6.04842545     -5.93215666   -8.44859785   -9.68149820     -1.78631343    0.48356251   -2.86104599
    1    2.33823088    0.71626332    6.85188854      3.31035200    5.74292500    6.15438085     -0.41555823   -3.00619337    6.94238882
    1    3.34836483    0.33966351    5.78373069      2.89994021    3.91650955    1.58216482     -3.42018646    6.57552386   -1.62589209
    8   -4.19252763    4.65229457    0.85501833      2.70904133   11.17208463    0.22173129     -0.39178776   -0.94886455    3.74663304
    1   -3.62403670    5.31097167    0.42662101     -3.11108500   -6.53079483   -0.12957527     16.32851880    0.62346772   13.43232714
    1   -3.97928308    4.77290753    1.80712774      4.06678815   -2.68386569   -3.76988860     -4.63207186  -18.93478127    0.50203023
    8    5.66258898   -8.49900855    1.22884857     -1.28683880    6.60235575    6.15892039      4.10657219    1.57752312    0.86383037
    1    4.93735379   -8.66826740    1.84104669     -4.00450741    4.77729994    3.12622270      5.02013776   -7.92768616    6.88534580
    1    5.45068161   -9.11644849    0.49561652      8.97460265   -2.21432148   -0.87523956      1.02755401   18.24767410   -3.07569487
    8   -1.60257562    6.20297683    4.43289809      7.25781964    2.67993056    9.11037701     -0.22889256   -3.01955242   -2.56265605
    1   -0.84446348    5.74221388    4.83222594     -3.49155478    3.77700179   -1.67169152     -0.09469066    0.38213266   -8.43488315
    1   -1.71511973    6.99198107    4.98772208      2.26967154   -6.96728398   -4.70688305    -18.98119663  -20.36720097   16.24633602
    8   -1.41471050   -4.06378493   -3.35244511     -6.28084308   -9.73434801   -6.31609794      2.32758315    0.04612280    1.04537492