 BEGIN_INFO
   #
   # This is a XCRYSDEN-Structure-File
   #
   # aimed for Visualization of geometry
   #
   # Launch as: xcrysden --xsf HICOLM.XSF
   #
   #
 END_INFO
 # estrutura final
CRYSTAL
PRIMVEC
      20.34333940       0.00000000       0.00000000
       0.00000000      20.34333940       0.00000000
       0.00000000       0.00000000      20.34333940
PRIMCOORD
  927    1
    8    4.36667119    3.09441614    2.01501683     19.67022095  105.23551650   82.20707401     -0.72083222   -4.23156886   -3.01474481
    1    4.91572538    2.95342633    2.91439062    -47.14033182   12.79047950  -75.95669357     29.00334836   -6.91766055   45.75433749
    1    4.12359621    4.16137560    2.09150156     27.68487089 -118.32155386   -6.42989306    -16.31689207   73.95590258    3.56602382
    8    8.98182341    7.40405178    0.80594772    -28.12541642  -12.31341519    8.19604444      1.08014073   -0.07670774    0.00487485
    1    8.19181209    6.86531697    1.10246540     20.82844776   16.66797280   -9.06240124    -10.04780436   -8.06692441    3.11506423
    1    9.73218523    6.90578804    1.17242190      5.68313343   -4.17006278    2.97550527     -6.90536586    6.63235813   -4.97168199
    8    9.52396533    9.97499082    6.80511577     12.48238331   14.87936005  -26.99284439      0.32955342   -2.70038936    1.40612422
    1    9.63833298   -9.69491380    6.06216999     -3.80798338  -19.12293541   20.65260217      5.46793154   34.95202650  -37.54545310
    1    8.87013041   -9.92803290    7.37045822     -7.25568682    4.67313536    6.01144040    -14.27617636   10.09157021   11.20258524
    8   -1.19057387    6.52425473   -9.05634609     46.72979227  -26.78105643   64.64675539     -0.95485946    0.41100160   -0.83952724
    1   -1.80402253    6.75001316   -8.29151350     16.77686954   -6.59907914  -23.94942831     -1.71960757    0.72247993    3.05557855
    1   -0.37796908    6.08081530   -8.54823506    -61.19128596   33.47665745  -41.18684500     15.02353025   -8.67541910   10.32225052
    8   -8.95482504   -8.73029998   10.06584249     23.68160853    0.51417144  -22.91447004     -0.52179327    0.32082330    0.46645027
    1   -8.50378225   -8.11813638    9.41991958     -7.12815786  -13.20952745   13.02690932     -1.15688441   -1.07084394    0.51354330
    1   -9.76097099   -8.25675564  -10.05686026    -16.55311716    9.83011983    5.75937732     13.82946652   -8.42137228   -5.29495365
    8    4.72436418   -1.45314853    6.94779918    211.96543391    2.41501585  -58.60694899     -7.18012047    0.07807090    2.19675266
    1    5.53341846   -0.65763422    7.08301424   -121.68151694 -117.65192258  -18.30494811     65.41303718   63.22335183   10.13723830
    1    5.31648191   -2.27273323    6.42535803    -87.70259039  120.31389531   77.52085775     48.39763642  -66.93226383  -42.28141694
    8    3.20981457    9.81175035    7.10586746    -41.46129618   23.24644033    1.06551180      3.24004189   -2.31903548   -0.36483091
    1    2.36391142   10.05402857    6.58375745     36.48228034   -9.84201982   22.51315527    -46.98439375   13.31791767  -28.65433669
    1    3.11118180   -9.94568122    7.91797437      3.29518776  -16.97864335  -24.08910419     -4.13701091   25.04066356   35.43909867
    8    3.58208271    7.48371159   -5.39513452   -101.62295648 -149.00391836   30.39376583      4.01280516    6.00735618   -1.38895941
    1    3.74032063    8.24549592   -5.11625114     34.87506777  150.10291206   51.30265239    -18.46788572  -95.89393572  -32.74832760
    1    4.14084692    7.38555328   -6.06712701     70.60435099   -8.10722007  -82.52852108    -45.56109394    2.86287885   51.69024666
    8   -2.47536490   -6.19336172    9.20220719   -191.78428249   -1.02795360 -124.87418036      8.91728340    0.49865327    6.27210032
    1   -2.50235383   -5.39583071    9.58897214     -1.64488338   89.05561324   44.08257397      1.37238170  -75.14237001  -36.67014491
    1   -1.82889505   -6.50120304    9.49831572    182.78237046  -86.58767407   85.18614810   -140.21309383   67.57803119  -64.86707350
    8   -2.19420360    1.64839472   -7.00343015    234.85653640 -293.71959119   23.47549156    -10.01285770   10.61534876   -0.23599049
    1   -2.37467928    2.11445671   -6.51402066    -85.04658874  207.84517760  199.46390679     60.46895361 -119.86779871 -128.02447013
    1   -2.55885685    1.83771754   -7.59687474   -144.11022226   84.51625061 -224.42668131    102.65662182  -47.35823620  135.04912463
    8    1.39904965    5.13693548    4.24794771    -15.53771700   -5.84996826  -30.18837699      0.54785490   -0.04109911    1.25754694
    1    1.55819625    5.82076523    3.53744023     -3.57208858  -13.58942757   13.87334787      2.37148185    9.46478000  -10.36610658
    1    0.83697269    4.47302111    3.74518890     18.27727703   21.95336080   15.99728738     -9.99962047  -12.06755057   -9.44928523
    8    7.26223658   -5.96644664   -4.86000882     13.51092930  -17.38964048   -8.80059906      0.14498159   -0.33191324   -0.34491004
    1    8.05281403   -6.01052296   -5.45148914    -12.91608158    4.19406698    9.94238256     -3.44077105    0.70349505    4.46480776
    1    7.06618623   -6.92348678   -4.70485030     -0.69866313   13.54569987    0.63120545      2.51206951    3.93750847    0.13389341
    8   -8.78050593    8.58652233    3.03587567     10.57769740   31.45799822  -12.38480117      0.26037915    0.28570054   -0.74220322
    1   -8.89037767    7.77427357    2.54877782     -3.17510117  -20.57623089  -11.67757194      0.02743423   -3.27227094   -1.17121367
    1   -9.04205715    8.32683153    3.92166922     -7.10962219   -7.90830737   22.64322595     -3.20088761   -4.13402315   12.74165718
    8   -2.14584434   -8.35128687    3.01449887    123.36385419  -71.96763362   68.01322786     -4.33899271    2.96868603   -2.48064006
    1   -2.67431409   -8.91916036    2.56785972    -56.53264994  -53.17648613  -45.27334754     30.13122754   27.86522563   24.90492773
    1   -2.51614927   -7.59848933    2.89243714    -64.36568341  121.71714813  -22.61211049     38.12104260  -73.35595122   14.74934972
    8   -1.46909968    4.16970089    6.58524756   -116.29816508   21.60071857  -67.45581539      2.59263538   -0.35286111    1.65033347
    1   -1.23861797    4.56234548    7.33967788     31.34340803   43.82096443   89.31406885    -13.02796806  -18.22166527  -37.28617775
    1   -0.78091052    3.65236861    6.40748243     85.02460710  -61.84611908  -18.61198326    -29.96540747   21.58877487    6.61793281
    8    2.68523674    1.02564627    1.72343032    112.69212643  109.81276480 -189.62186782     -4.28612064   -4.27413157    7.78027866
    1    3.40840714    1.91406446    1.80223781   -112.13551216 -135.97078610   -6.73089717     69.90491276   84.38922631    5.20551909
    1    2.67526947    0.85146582    0.56750515     -2.18431420   25.83193911  196.25676029      0.76524441  -17.38087726 -127.92195775
    8    2.10902678    1.82110809   -7.76694316     25.87209671   45.74651035   -4.43135393     -0.33515922   -1.90018032   -0.43517126
    1    1.49171170    1.18642646   -7.47228403    -28.63448620  -31.42634075   13.17781275     10.40218014   11.54534635   -4.98579979
    1    1.86311967    2.59655671   -7.19758238      5.39393710  -13.15209268   -9.36440174     -6.61966960   18.76802182   13.01042332
    8    6.04651806    0.25064303   -7.67532361      6.85294229    3.05981195   -7.87332742     -0.27210308    0.11619729    0.37734559
    1    6.60469854   -0.32332446   -8.25044704     -3.26319629    2.59869739    3.87046937      3.35160649   -3.64719019   -4.41582011
    1    5.53314850   -0.41305669   -7.18805074     -3.50918440   -5.23965099    3.91220283      1.42509624    2.54205971   -1.84420696
    8   -0.23549863   -7.07966984  -10.02871568   -213.69608899  210.03460381  -28.03103640      9.87788904   -8.85233718    1.43683772
    1    0.46119011   -6.81284809   -9.73147814    169.72870366   54.35456847   66.93112974   -127.28401648  -39.51154068  -49.58300330
    1   -0.13312484   -7.79556632  -10.15048066     48.37143220 -257.15037495  -42.94392569    -31.55280229  182.27060840   31.17410995
    8   -3.85742773   -0.23455397   -2.24451870    -33.24796562   33.13636775   21.61053673      1.21402203   -1.08221802   -0.84362293
    1   -3.85996779   -0.86043182   -2.94251132      0.58851720  -28.53114074  -31.36694690     -0.15012250   13.46254520   16.46790373
    1   -3.05407323   -0.44184153   -1.79523844     30.85376715   -8.73849348   15.64546055    -14.55644043    3.52493348   -7.07914353
    8    7.10799177   -9.36635780   -6.61433598   -172.93044605 -223.90200817 -250.10959510      1.14360594    5.24553821    3.45189756
    1    6.65399233   -9.19173191   -5.99238420    -58.34423981   84.08717012  189.37385739     51.48881711  -35.29226469  -63.16965548
    1    7.80032449   -9.09728911   -6.64722035    226.02681869  126.88133318   62.71490037    -60.27402561  -51.12953393   12.83012333
    8    1.37352642    3.66733633   -5.88362076     88.53509330  -16.99867337  199.07807756     -3.77592752    0.91179788   -7.23773165
    1    0.59231414    3.90688506   -5.20741153     64.96864858  -19.43614622  -63.07823588    -35.07148072   10.04143213   32.56193961
    1    2.25947839    3.44510115   -5.13911605   -149.97375170   39.62863046 -136.85564172     88.54021147  -24.29809506   80.56335100
    8    6.27659843   -0.45333033    2.77847959    -90.97864199   -2.26491664 -128.48367993      2.83147202   -0.00864850    4.12336165
    1    6.68116944    0.08784606    1.95492538    -30.30196974  -45.52422864   71.93820799     15.76392652   24.02270446  -37.36036159
    1    5.29524907   -0.78628193    2.37325083    121.98405202   39.56412719   54.47152443    -61.68379262  -19.57788654  -27.28775596
    8   -5.12758458    2.18104891    5.30859868    -65.86513560  -26.46987521   32.78506959      1.71702923    0.73322046   -1.07101688
    1   -4.79852145    1.95597203    6.19932307      0.77540424    0.01185370    0.31401102      0.06690575   -0.57203242    1.33985302
    1   -4.36984816    2.47377180    4.90163604     62.25557366   22.32282020  -33.12461728    -27.71841901  -10.05635068   14.44833984
    8    2.31875124   -5.54063278   -2.93982023    -37.15856313   26.87173439  -90.66228362      1.08313714   -1.02988832    3.47758434
    1    1.95728092   -5.24107935   -3.90448716     34.23742258  -26.08042196   88.01644633    -20.82251068   12.17162521  -44.87008525
    1    1.51660811   -5.94353783   -2.54257760      4.03575668    1.41545020   -0.05462941      3.64979090    5.05525018   -7.16438559
    8   -3.64192043    2.29250851   -9.07537792     23.43520378   56.75429999  234.75043387     -1.50183117   -1.80672709  -10.17390069
    1   -3.90187710    1.69103876   -9.50089989    -66.28981570 -159.30015589 -122.10564368     45.57396529  104.81328784   78.44081149
    1   -3.43305094    2.87130298   -9.63327432     40.24168008  106.59584233 -114.47359217    -26.15074552  -76.40515549   82.35854210
    8   -1.17525174    7.66593328    3.63583588    -47.62140067  -59.25862433  -14.98670985      1.57056581    1.90934260    0.47459342
    1   -0.89238539    8.45525923    3.30512117     24.01047709   65.89143994  -25.94529625    -12.19397013  -33.54264150   13.11377708
    1   -0.69930259    7.56912117    4.42089689     26.28377999   -4.48350401   42.60789531    -12.80491978    1.92021853  -20.72444235
    8   -8.83509121   -5.67787650   -2.10841360    262.90641683   -5.29900948 -297.23423131    -10.31028738   -0.21910709    9.18927439
    1   -8.95122719   -5.09658834   -1.68570215    -75.27896792  193.35853599  184.22909496     53.38929490 -107.99421666  -86.60822060
    1   -9.26096357   -6.23267051   -1.93052178   -185.08420130 -186.88008235  107.03167337    112.80406293  106.59738311  -51.05684660
    8    2.61031113    6.04566673   -9.73620870    -48.45265067   -7.56054810   28.77310325      1.52068935   -0.03254735   -0.46311279
    1    3.44169843    5.63478202   -9.48783037     17.37465636   -8.68608992    4.98527737    -12.42926892    7.00648662   -4.52248199
    1    1.98323757    5.75352485   -8.97895172     27.62552117   14.48096239  -34.94590826     -9.55833570   -4.80452434   11.63714789
    8   -1.55353162    8.60373133    9.56751336     -7.81392537  -39.89845340   34.78496884      0.68332992    1.40107882   -1.19135018
    1   -2.48990435    8.73690336    9.89637250     24.21181262   -3.42963703   -8.01210583    -20.81547802    2.54826081    6.98798531
    1   -1.24221720    7.83580128  -10.16833576    -16.91103354   39.90091212  -30.86547914      9.30323281  -22.43854378   17.22115387
    8   -3.35477045   -2.02036409   -4.20513844     -0.86422358  -27.56998045   47.72438720      0.26832870    1.08235025   -1.99263086
    1   -2.40086881   -1.93472110   -4.04720632      6.33949538    1.25774787    0.40029272     -7.21845054   -1.12046056   -0.77621427
    1   -3.45788316   -1.60772778   -5.03158650     -5.01486904   22.73150272  -46.53291317      3.93673474  -16.22632132   31.96376404
    8   -8.48573057    2.88087673   -7.72699100    -90.97654067  -84.25727567  -80.79261035      3.33385298    2.49349415    2.56748169
    1   -7.63475926    3.03399759   -7.80170980    115.43552485   24.40403809   -7.00078030    -63.08060316  -12.49178069    3.71715587
    1   -8.72161195    3.35774561   -7.02908072    -24.30488478   60.91704778   86.40622987     11.83777116  -30.98797031  -45.12776005
    8   -2.89463084    5.68504439    3.19108241   -137.23018198  -65.53991298   82.96758913      4.48834036    2.19530130   -2.88370703
    1   -2.36457867    6.33039351    3.32902674     95.22948397  110.15770548   18.91798777    -50.01860453  -58.44004773   -9.91803810
    1   -2.63419842    5.34967772    2.43525709     40.34611100  -41.18103024 -103.30178917    -21.49108921   22.14330499   55.75786557
    8   -4.66349963    5.31650947   -6.37768130      5.28415083 -141.33999990  -22.17794914     -0.42832447    5.37088973    0.92307014
    1   -4.00464925    5.83001439   -6.67174710     70.71793165   57.93429567  -31.68395556    -41.66965561  -33.43850314   18.13466992
    1   -5.20971204    5.88552917   -6.03328437    -78.55695655   84.49542339   49.43324909     48.48958168  -52.47935869  -31.33305911
    8   -0.98950499    8.99141508    6.99272866     42.85134143 -188.63497936  101.91243274     -2.04759332    8.63832471   -4.67735523
    1   -1.20889945    8.76256431    8.08048175     28.86389462   37.38123886 -151.92125656    -20.14056255  -26.78353293  107.78074569
    1   -0.51173325    8.01114807    6.64400110    -70.53859353  148.76288142   46.74229078     52.05656740 -108.63188854  -33.60433728
    8   -9.15091530    6.14759369    1.80251959    -24.14588473   23.78977098   -4.75016176      0.93496470   -0.92421538    0.21618789
    1   -8.32507382    6.17552382    1.32401802     20.02363170    0.64559554  -12.26810303    -10.61664349    0.10346957    6.63430772
    1   -9.04357569    5.36794948    2.33216063      2.92299357  -24.12716656   16.09870794     -1.55321553   14.88546032   -9.70044147
    8   -3.95129689    8.70695375   -9.49229363      6.83501321  -11.87926225  -12.00497438     -0.17437562    0.13549320    0.11157145
    1   -4.36982838    9.54235845   -9.72884411     -7.34306883   11.80610773   -3.56645488      1.35441566   -2.57377618    1.10041038
    1   -3.93102985    8.76482515   -8.53538574     -0.14176434    0.48956377   14.63499010     -0.21630795   -0.09020351   -2.41398747
    8   -8.88255336    9.35598269    8.57440421    -50.95021673   71.83655087    6.36754419      2.03554694   -2.27824881    0.42136960
    1   -9.67113775    9.50700261    7.92604641     43.67575931   -9.44020857   35.44084336    -28.40415424    5.98864809  -22.82563201
    1   -8.98937273   10.16752710    9.22711645      9.02078032  -56.48006819  -43.79302541     -4.11689951   27.44276458   21.04764761
    8    0.75348191   -0.94768678    4.38481725     11.87417031   51.91037502   -7.17038866     -0.79551249   -2.81513882    0.26296687
    1    0.72357851   -0.02753053    3.94718156      1.62880707  -44.58448945   21.75009807     -0.91762546   37.13911385  -17.89425707
    1    1.38689973   -0.79718928    5.13733395    -11.58119394   -2.40863946  -14.23406272     12.46716327    3.17535137   14.48109995
    8   -4.45108163   -9.13677663    6.35231489    -73.86101529  -99.77814233   23.07595156      3.04200353    3.92600083   -0.91191312
    1   -5.38024052   -9.61032551    6.67325830     99.07209613   52.38428522  -33.31884737    -63.64373784  -33.65407611   21.22086710
    1   -3.89202503   -9.96076681    6.11056363    -29.39082545   44.21467226   13.29807131     17.76306421  -26.12697225   -8.41173183
    8    0.49592593   -3.87330016   -8.99862607     47.20314555   -3.44027550   52.03690157     -1.73501964    0.01777831   -1.49173143
    1    0.72609669   -3.17187465   -8.27414662    -14.25512997  -37.40776601  -39.98694386      6.76647324   18.82667805   19.54725040
    1    1.02446105   -4.69676177   -8.69308659    -29.85197752   42.60780704  -18.42250346     14.69770493  -21.66145713    8.63279872
    8    1.95406761   -4.77606375    5.50005995     -5.47319023   17.41930471   67.36764818     -0.13409752   -0.48283559   -2.56084203
    1    2.51455149   -4.80552412    6.36852351    -31.65026963    1.60695799  -50.67401911     21.45240638   -1.00492698   31.17458638
    1    1.07965951   -4.38631744    5.83922305     37.44412087  -17.14976686  -17.32133045    -18.87255142    8.73630129    7.20966015
    8    4.88252558    1.73042160    8.95419503    -71.73312011   -4.73706488  -17.19653051      1.83903607    0.18674667    0.50595565
    1    5.40098347    1.20140239    8.37682040     23.09146788  -22.39952713  -24.22905613     -9.00961454    8.37594340    9.13200139
    1    5.51426449    2.08394141    9.50815291     47.73130419   26.56707377   42.01426913    -21.42391139  -11.63101076  -18.37702332
    8    8.75448101    1.46958769   -4.05053469    109.17857656   22.75242563   40.03308088     -3.30473908   -0.47270066   -1.67110374
    1    8.45348751    1.60274968   -4.89310480    -31.25767958   10.83270975  -76.06904414     18.13347333   -6.16276249   44.28331716
    1    8.05873840    1.06730390   -3.65098813    -70.69145136  -39.38972907   37.16045453     31.85554083   16.85093601  -16.09249543
    8   -9.64383210    7.91631609    5.46133088      2.95953025  -16.57741188  -51.60170642      0.13685837   -0.11168395    0.05958486
    1   -9.96950763    8.61403768    5.98871967    -15.28477045   33.83221791   29.48953700     -0.13665657    0.85532626    0.08265608
    1   -9.22480833    7.33953828    6.08666911     13.63110065  -17.47914353   23.35176394      0.14197459   -0.18387708   -0.95295466
    8   -8.40145504   -2.63137720   -8.78060508    -46.70175326  -19.77053486   22.92445716      1.18412092    0.20223300   -0.58490429
    1   -7.70901891   -2.34510533   -9.32834635     41.55963209   16.71612527  -32.76714519    -17.76054597   -6.92853375   13.30311693
    1   -8.18317297   -2.19995460   -7.94856685      3.55696415    5.26435870   11.26107700     -0.88396585   -1.64628544   -2.89094366
    8   -7.71649446    4.01712926   -3.50819547      1.94313046   16.05988715    1.20245672     -0.11725096   -0.02723669   -0.30683888
    1   -8.24688061    4.22245682   -4.31297676      4.88755913   -1.01507849    5.85808643      1.47170157   -0.90340262    3.33812407
    1   -7.30001454    4.89097587   -3.28448988     -7.81148956  -15.79592966   -5.07452336      0.45502310    1.35634496    1.19374512
    8    6.18787647   -8.44421847   -4.27852084     38.15816037    9.64175364  -47.51602996     -1.26029601    0.49963543    1.67053603
    1    5.50258415   -7.98147534   -3.86141658    -41.64092763   24.38300048   28.33285966     18.28930057  -16.13707705  -14.22436127
    1    6.29559517   -9.19367132   -3.72689310      1.58316961  -30.07460763   24.12111163     -1.80856585   10.72713486  -16.90403186
    8    3.51079978   -2.31683614   -8.74014405      2.11644097  -11.13612118  -34.07229163     -0.18377113    0.35036725    1.06645375
    1    2.63365953   -2.08722575   -8.44550066    -21.39371361    5.57276819    6.37450365     10.20151626   -2.68689464   -3.43105941
    1    4.02516081   -2.12084240   -7.96865773     18.59124205    7.08089774   26.73468280     -8.07084304   -2.80174431  -12.05195498
    8  -10.14037208   -3.85764834    5.93762275     -7.63249366   14.58369006  -23.88778141      0.47353499    0.86724203   -0.76974627
    1    9.65658024   -4.50785122    6.38431234    -11.50869645  -14.46921504   10.39679853     -9.16255436  -11.56175659    7.94410891
    1   -9.34622451   -3.84982173    6.47328606     18.91402261   -0.67142636   13.63492184      2.96523353   -0.63172853    1.90846262
    8   -0.82521193   -1.13188421   -3.57040241      2.33991279   79.78081219   75.28875608     -0.14778685   -2.80389325   -3.14941687
    1   -0.65842245   -0.09672398   -3.70134186    -13.36677301  -81.82488985    9.83772508      7.91678091   46.50698691   -5.12586610
    1   -1.01911739   -1.18891138   -2.52564523     14.73183559    3.12035726  -85.42346387     -9.43617970   -1.89478266   55.24654854
    8    0.13165236   -6.65255917   -1.85747219    218.98731244 -125.07549586  -77.76056430     -8.77252927    4.92535968    2.47441165
    1   -0.40503970   -6.61736103   -2.50998941    -91.88819107    6.74012369 -111.09451995     58.54101238   -3.34183040   73.63775665
    1   -0.24553468   -6.30164334   -1.32036923   -127.65019173  119.89151778  183.22568018     76.96301140  -76.12849174 -109.77221151
    8    2.80633223    7.93291187   -0.47962076    173.77880439  185.56897145  -47.60102115     -5.39934159   -5.11793638    2.15248020
    1    2.06767586    7.83921733   -0.27532887   -209.41288109  -46.73167662   57.95291075     92.89527674   20.90243904  -30.16046036
    1    3.15051099    7.16855486   -0.51046404     44.15556633 -142.32933597   -2.86225325    -13.98896906   60.18153199   -2.92837630
    8    0.44122036    5.50841149   -2.06540465     38.97308137   -8.64682018  -65.34869929     -1.65473055    0.12763684    1.71335376
    1   -0.19466688    5.07602930   -2.71391292     23.52268982   16.86929655   24.81472471     -8.55601499   -6.49904709   -9.11109470
    1    1.27232615    5.71155806   -2.66920227    -57.29930429  -13.26254963   43.66005134     31.44821977    7.65144574  -22.70239550
    8   -0.43560312   -7.71405985    5.03887477    129.79385063  -46.28672538   -3.94445383     -4.74733570    1.84158585    0.30466247
    1   -1.04769913   -7.94607333    4.43756861    -70.62986269  -22.39470755  -62.16969929     39.48907298   12.08577002   35.36937307
    1   -0.86247773   -7.18505854    5.58876025    -58.94948758   66.64433308   67.45445575     35.09542961  -39.73789500  -39.76965175
    8    6.59621924   -7.86329167    2.96917548   -287.95221493   55.56155394  -82.29799624     10.76440056   -2.06362465    2.78102002
    1    5.60123198   -7.64177341    3.61615896    196.14378632  -51.98364575 -123.97994660   -115.40112436   32.20133510   75.19725284
    1    6.15172374   -7.86659476    1.85832911     85.15517534   -6.29572286  211.48126117    -48.03909486    3.79588628 -124.41248385
    8    8.74818443    1.49816960    8.44202351     42.69646566  -55.32748458  -55.00643305     -1.55542175    2.40612076    2.04417088
    1    8.18106171    1.80168916    9.06678120    -53.69245735   29.78786782   61.04668438     35.35460355  -19.71525851  -39.57868226
    1    9.12989371    2.30608299    8.11046417     11.53055467   24.81291036   -9.40560096     -8.72356064  -18.82970663    7.22487430
    8    3.52961736    3.38584806   -4.33344274    285.18954669 -158.25481725   75.56941554    -11.32295891    6.44134510   -3.48154311
    1    4.53688562    3.48560491   -5.00542446   -203.60812480  -19.00878101  139.48266713    125.65578826    4.93320564  -75.87392579
    1    3.89579761    2.61740618   -3.40700467    -75.98914281  180.13998099 -213.43638406     50.47319379 -111.52491851  128.08595501
    8    6.47283728   -7.92034365   -8.78078119     94.84018287  190.41876090 -201.29824152     -2.29744141   -5.01941498    5.94338277
    1    6.62337308   -8.24946081   -8.16811577     68.35162516 -127.92614488  244.83353662    -49.08387865   47.85691438 -122.33522135
    1    5.75125273   -8.24241752   -8.94587019   -164.04049095  -68.25199887  -48.91721030     85.12923218   30.61260523   30.60701523
    8   -4.56110307    0.43447466    9.61913828   -118.36682431   69.19183683  118.45197078      4.65639520   -2.90567383   -4.84617465
    1   -4.15428260   -0.30028161    9.52340550     75.51308481 -128.96715794  -20.10248308    -49.60408097   83.98528268   13.34975099
    1   -4.33574716    0.87268137    8.90506801     35.27503290   56.39337066  -99.92751872    -22.76063155  -36.72719561   64.59089715
    8    4.92645928   -1.93174940   -6.48833959    -16.02156956   55.95118981  -20.48526906      0.55061894   -2.03341789    0.38821403
    1    4.95997628   -1.76963155   -5.54552270      0.85658944    3.88447677   23.57802831     -0.26097539   -1.19653922   -8.73318986
    1    5.15905074   -2.82293564   -6.52810095     15.44984068  -58.31326216   -1.95107318     -8.64806684   31.56328715    1.82796725
    8    5.74509589    8.78977591    2.32712143      1.69078704   20.60002088  300.52890634     -0.17741875   -0.60841099  -13.27786501
    1    5.00403047    8.39469786    3.20539354    150.45341162   78.45981997 -178.88315590    -96.46614811  -49.25876743  123.94496992
    1    6.55622730    9.38471109    2.96597116   -152.56099390 -108.69975002 -118.99267083     95.62846959   69.63659736   84.80180138
    8    0.43834441   -8.83364498   -6.68155564    -43.40904451   22.60179139   19.06088065      1.88612124   -1.49878351   -0.84178115
    1    1.35861752   -8.72891895   -6.55486258     44.79767335    6.61238150    6.68014563    -29.65509616   -3.98765622   -4.54769106
    1    0.41871912   -9.60422110   -7.22304756     -2.32189758  -30.18458027  -22.58635840      1.08657921   26.49771832   19.04956044
    8   -0.85337317    4.42892452   -4.35045825      7.42297850   51.38314163    6.82422542     -1.24250740   -1.65268498   -0.51825581
    1   -1.14312607    5.40545521   -4.35848463     12.27790250  -39.53275676    0.84159496     -4.12236343   11.88315928   -0.23208294
    1   -1.64103124    4.00564717   -4.70014875    -16.24309790   -9.99543445   -7.45609769     20.95030906   12.83269697    9.35664465
    8    4.67525541    2.57772403   -8.11900812      2.20887419    4.09249614    2.59545178     -0.13157171   -0.05508075   -0.11955216
    1    5.17767612    1.74284754   -8.11351948      2.13875164   -4.40183057    0.27326557      0.10190680    0.66412750    0.04582115
    1    3.75442999    2.26954340   -8.02701228     -4.07076903   -1.09889317    0.44817587      1.87292409    0.21613770   -0.24550550
    8    2.78648398    5.76704098   -3.45305777     25.46984808 -118.32347821  -36.74706941     -1.45544849    4.60662648    2.14582353
    1    3.07770921    4.79036328   -3.85563323    -29.64586345  106.12891439   44.53703888     19.87295867  -68.37684764  -29.62868267
    1    3.09449868    6.37584379   -4.14213211      3.13467658    6.31183887   -5.98784796      1.82784644    0.78765312   -2.51942638
    8   -2.93841102   -3.14595914   -7.38197130   -165.08749338   14.22488081  -20.61851822      5.48328066    0.26314733    0.77803167
    1   -4.01682935   -3.38694710   -7.64695099    155.31370539   33.79075780   35.92859465    -81.00194041  -17.67683016  -18.09165821
    1   -3.02934442   -2.17394631   -7.06433817      5.99995930  -50.15951393  -16.71035704     -2.35435343   17.05753391    5.60750482
    8    9.72571710    1.12438870    4.74071154    201.23988216  168.02336327  -17.16156268     -7.36309230   -5.98642260    0.66261620
    1    8.95643097    1.12929442    4.77766727   -225.81265651   -7.07819750   11.98723040    131.67779262    4.72335192   -7.70128465
    1    9.92285779    0.32611440    4.76624941     32.29629590 -165.07796901    6.42281139    -17.50134609   90.06700550   -3.92454806
    8    7.25897112    8.88604709   -8.40448584     33.72850777  -78.12318655  -16.42221615     -0.17123831    1.83519892    1.18522192
    1    7.17694345    9.62547942   -7.86807288     -6.14533450   51.25611179   36.24950562      1.94640634  -26.80021245  -16.16251605
    1    7.86540364    8.28298181   -7.85034323    -25.21790184   24.10751687  -23.05268399     -1.41160963    0.26735338    2.04689599
    8   -2.87738525   -3.46596951    2.96228042    -61.86885290  -61.36385307  -63.31284731      2.21881551    2.12509060    2.20897725
    1   -3.22192815   -2.71852218    3.34453748    -27.96627127   61.76816518   31.92775444     14.30293628  -33.40971144  -17.49580177
    1   -2.04080253   -3.45921756    3.26641858     88.64400889    1.09981380   32.38079131    -48.66741403   -0.39566911  -17.49784244
    8   -7.29359924   10.14427999   -8.77200500    -46.71739339 -119.05204459  102.86404549      1.39847589    4.32396840   -3.78112933
    1   -7.86789533   -9.73535519   -9.24079322    -71.53844263   62.73835190  -62.18978035     40.39215147  -35.92877487   34.05591425
    1   -6.54095062   -9.88576416   -9.01507445    120.04735631   53.56087667  -41.99983038    -63.95285242  -29.36376152   22.11996695
    8    8.43541576    4.08580716    1.47470606    -25.73113268   32.74885626 -157.54141378      0.71931122   -0.59674853    4.59169017
    1    8.15870705    4.42741827    2.19810578    -42.33175361   52.53503796  120.52508265     17.08149671  -23.85225250  -56.89331769
    1    8.94058473    3.42344153    1.72481099     65.31870584  -84.77753330   37.89944727    -26.59189582   32.73870631  -15.94333759
    8   -7.85948567   -3.79851787    7.34044302      2.77366035   -6.69658512   -5.17738333      0.03139061    0.35101867    0.24824372