 BEGIN_INFO
   #
   # This is a XCRYSDEN-Structure-File
   #
   # aimed for Visualization of geometry
   #
   # Launch as: xcrysden --xsf HICOLM.XSF
   #
   #
 END_INFO
 # estrutura final
CRYSTAL
PRIMVEC
      20.44990321       0.00000000       0.00000000
       0.00000000      20.44990321       0.00000000
       0.00000000       0.00000000      20.44990321
PRIMCOORD
  927    1
    8    4.40276846    3.16580923    2.02182164     19.93940218  -84.81041903    2.50801258      0.84981014    1.60801626    2.05335140
    1    4.90769919    3.01807004    2.85273387     -2.54476306    3.32378756   -3.59140546    -14.91812813    5.30833078  -21.15145705
    1    4.21072174    4.04287567    2.08448820    -17.42920594   81.96925078    5.59071511      3.71072263  -13.93239953    1.46195203
    8    9.12632054    7.39458494    0.77089325      0.30689814   -4.56108115    4.40138109      0.23935547    3.30219459   -2.39842218
    1    8.34713392    6.86986903    1.05594304      9.20003914    1.03100924    0.10413627    -40.32947739  -30.78507913   18.38220265
    1    9.89532611    6.90223072    1.15822040    -11.73673158    3.49135288   -2.09194924     51.14166397  -35.74306678   28.46384789
    8    9.64800708    9.95819615    6.85881008    -71.89683472  126.00250340   -5.84027833     -3.95952801    9.31182026   -2.09779321
    1    9.75396650   -9.76786682    6.06395313     -7.96411504  -67.64492214   73.35376371    -14.77042852  -92.36742657  105.18737883
    1    8.91981899   -9.98149040    7.50129687     82.12896837  -59.77493293  -70.13266321     75.02598854  -54.46976026  -68.00244068
    8   -1.20411181    6.56106857   -9.11307645    -21.31388448    6.37537623   16.65387215     -2.46562408    1.30834325   -2.50358748
    1   -1.81601391    6.78338489   -8.35541662     10.79993730   -2.62413944  -19.03271080    -13.88594866    5.97527100   21.72316856
    1   -0.45472998    6.16778197   -8.63396628      8.42176183   -3.55653955   -0.15483891     52.48789125  -28.63265162   36.00211928
    8   -8.96672345   -8.81477360   10.15208275    -43.48449597  111.66451614  -37.64332512     -0.70092148   -0.35161341    0.07430082
    1   -8.48535659   -8.16049630    9.46623189    -37.31272827  -57.42023966   55.75402376      1.28284611    6.44687675   -1.14985926
    1   -9.86863018   -8.28220899  -10.07747046     79.37802706  -50.46677755  -17.56323459     11.41188446   -3.29024654    1.20478923
    8    4.76742766   -1.48448923    7.06810690   -108.22215780   16.30804228   45.47847341     -2.87631704   -0.49096539    1.35534506
    1    5.38652323   -0.82554861    7.16298420     53.12771749   55.03410470    6.89527839     36.09115021   40.40498162    2.35447065
    1    5.21208720   -2.10730010    6.63530218     53.90875307  -73.37277520  -52.25928167     17.48316395  -21.08953037  -16.41888078
    8    3.14907312    9.81773123    7.16138627    -63.40376130   36.66930545  -17.28210875     -9.87228327    7.11240537   -0.69138816
    1    2.30658529   10.09804068    6.59834173     58.65228650  -20.59972336   40.33508223    150.28911634  -49.55195991   99.22978575
    1    3.06770093  -10.01105862    7.95388445      2.83271451  -20.15220637  -24.34408325     10.96936666  -69.88593893  -88.61881015
    8    3.57072677    7.49248933   -5.42693663     70.97859100   79.98330359  -26.97137109     -1.52569111   -0.21566843    2.55771304
    1    3.77896500    8.47425810   -5.05716093    -19.15970361  -86.69791370  -35.67184305      1.37975028    7.94058320    0.90555919
    1    4.24491315    7.39338538   -6.23574340    -52.15834720   10.90731031   61.51102991     27.15097511   -0.09243090  -30.92373456
    8   -2.52672412   -6.18372865    9.25419203    173.66272583    6.95480854  136.82518924     -4.40804809   -4.19229809   -6.28802118
    1   -2.53894812   -5.22496717    9.76608794      2.08280687 -100.84750963  -55.67478912     -0.84659274   76.62010493   45.36740944
    1   -1.57248057   -6.68367045    9.74216496   -168.64849137   91.38328708  -87.26688377     64.83473942  -36.01430530   36.97116113
    8   -2.20879894    1.61103364   -7.04666739   -154.17418210  202.62429842  -70.54533699     -0.76757706    1.30701587    1.00367486
    1   -2.51420089    2.43001667   -6.32511561     48.35961139 -125.16728698  -96.34291007      8.54630995  -14.85716930  -13.78666957
    1   -2.77628990    1.99784428   -8.00971203    101.35424167  -79.25521894  167.57252841     -0.72843036    3.84951278   -7.62086308
    8    1.47739645    5.16630318    4.23572996    -13.81835281    3.14501988  -48.94803963     -0.28170466    1.65040156   -3.10627400
    1    1.65038157    5.85214580    3.50873539     -4.77246503  -22.02033941   28.91381604    -10.86096326  -32.36302423   29.23943589
    1    0.91438505    4.51219593    3.71650342     19.01053778   20.55717405   21.49590903     14.91163002   20.97078042   10.23605807
    8    7.26721348   -5.97940931   -4.95888456     42.20536318  -71.48439407  -29.20257884     -0.24828629   -0.44781715    0.34196941
    1    8.09969155   -6.03018130   -5.56543017    -48.28340412   11.97142070   34.71881874      3.24562339   -8.40069094   -0.30382413
    1    7.10291482   -6.98209372   -4.76464967      2.58529532   62.55704125   -7.10655603      7.26511307    1.89575652   -4.87238206
    8   -8.80552840    8.61965893    3.09533031    -44.44027875  -74.42002762   99.14786183     -1.85799517   -2.70824921    3.91974551
    1   -8.89557156    7.74147154    2.58737112      3.64484010   39.20509797   22.05645140      1.78976675   22.68067067    8.90406314
    1   -9.14444173    8.32604115    4.10272548     37.74323174   34.51764256 -115.92842765     25.90446562   25.15576541  -73.58465831
    8   -2.12263350   -8.40399580    3.06367956   -133.67352930   42.72653644  -71.74711092     -3.99297622    0.85826202   -2.52235959
    1   -2.79776883   -9.07378393    2.53802294     73.12998832   69.99625058   54.14695110     35.67711058   19.23216543   24.76937005
    1   -2.61627734   -7.43571496    2.90151257     57.70997827 -110.47322940   18.11656950     25.60719771  -37.31935623   12.37009781
    8   -1.48434647    4.19772706    6.60327197    -29.45537935    8.28535117  -13.33687730      3.68848592   -1.65892569    1.04050611
    1   -1.24017224    4.60917894    7.43437362      7.17130738    7.91884745   17.27562865     -9.80258429  -13.13223994  -27.12092330
    1   -0.73559895    3.63757292    6.41740410     22.62308048  -14.79107631   -3.44930334    -49.74889700   35.24017518   10.31994064
    8    2.72509468    1.06436042    1.70032589    -27.49310824  -33.10598799   68.91034344      0.21049369    0.67768055   -2.56844776
    1    3.30295921    1.79105235    1.77510572     32.20745020   40.77824370    2.87772764    -10.94919677  -16.81687541    0.45480565
    1    2.68043773    0.92819038    0.80280961     -2.92669538   -9.60304548  -73.12681369      2.79995328    3.06912797   38.65649892
    8    2.09467993    1.85701690   -7.82725736     14.81691715  -41.34399157  -28.14582617     -0.64095279   -0.63216127    0.38486202
    1    1.47335462    1.18167178   -7.50540359     -1.17996770   -5.41916044   -0.66491218     14.45348709   19.25727849   -5.03082166
    1    1.83822776    2.57043421   -7.30699008    -13.55980654   48.12729436   31.10427903     -1.99090988   -4.94189264   -2.82357592
    8    6.03470321    0.26388201   -7.69933247    -35.89019715   46.58868042   39.42968411      0.60539869    0.12290207   -0.74212686
    1    6.55396701   -0.27049912   -8.22330007     41.86471826  -40.14775262  -44.51156325      2.01722057   -1.67231538   -0.30770988
    1    5.54782465   -0.40452473   -7.19223970     -6.01156732   -4.32429684    5.31790335     -3.24647502   -6.25748107    1.95409212
    8   -0.30130425   -7.09205139  -10.05000276    193.62611994 -112.32091309   29.09696512     -3.69193686    2.05294630   -0.73453138
    1    0.70623163   -6.73449494   -9.66860132   -150.41745186  -43.31987028  -53.28631802     32.71468123    4.66960465   12.83695665
    1   -0.04489791   -8.17596707   10.19528139    -45.28233304  152.91696817   26.43479337     10.81945965  -26.69379968   -3.05533401
    8   -3.93853848   -0.27804684   -2.20887003    -35.58902862   25.70895954   -7.89859522     -0.15720692   -0.59553770   -0.33678475
    1   -3.94938190   -0.91659842   -2.92566602      2.54950653  -13.25034699  -12.43924709     -2.02681621   -1.53884376    3.38424413
    1   -3.13197260   -0.47785625   -1.77049475     34.21190175  -10.60174573   16.56172638     -1.70058870   -1.72466071    3.60659730
    8    7.14745673   -9.44031406   -6.69117082    137.53881760  114.09241832  134.81947857      2.14346324    2.49293306    2.41683560
    1    6.68442966   -9.15262893   -5.74387714     46.62625926  -32.60588153 -108.43822100     17.10064772  -10.51356139  -34.03066421
    1    8.22358189   -9.00318706   -6.52416352   -179.51543264  -72.72027397  -34.00588550    -33.29487607  -15.65176429   -9.68204734
    8    1.31258098    3.69012242   -5.90303165    -53.10266461    2.18850196 -118.42791271     -1.51467361   -0.19089126   -6.52676192
    1    0.63836561    3.95149843   -5.33286374    -40.28418769   15.80507220   41.74111971    -37.94947284   16.63654084   34.98006466
    1    1.99233866    3.54707088   -5.38418504     90.16409106  -18.27584242   76.34921544     55.20275304  -12.60945637   51.23583313
    8    6.30862016   -0.46492092    2.78180799     48.72189609  -35.83951978  149.63384443      2.95916896   -0.71248976    5.28987815
    1    6.66075534   -0.01531602    2.14024339     44.38779217   65.70498317 -103.22698980     21.87765217   34.65531004  -48.73182351
    1    5.52342767   -0.72845613    2.48160724    -92.74704302  -27.63825569  -44.50989603    -70.51154754  -22.49127473  -25.22526017
    8   -5.16844636    2.21010259    5.35207004     -3.81274381    2.30630486   -4.62628023      1.41973189    0.67613711   -0.25012927
    1   -4.83610163    1.98363662    6.23088771      2.32098286   -2.11146728    8.20013719     -2.49546786    1.46338639   -1.80061846
    1   -4.34868081    2.49093814    4.90517782      2.84619720    1.24221397   -2.50968550    -17.27664678   -4.35941141    9.51668834
    8    2.34494358   -5.54965569   -2.94668106    -91.93124376  -62.30206130   67.68829172     -0.55955329    1.37052206   -1.46520035
    1    2.00634886   -5.28583856   -3.81327751     -4.28557083    3.60274117   -8.43712988      6.87810651   -5.61937907   10.38272921
    1    1.46697356   -6.01361095   -2.47877003     96.82532555   54.75927377  -53.34212453     -3.26149096   -2.20030710   -0.18130065
    8   -3.71177490    2.31774602   -9.10887741      6.34073045    1.04966727 -206.21255832     -0.02763562   -1.34648173    5.56553365
    1   -4.05025767    1.44961291   -9.74246676     45.98969318  121.93589246   86.06369847     -9.77372447  -26.30743185  -27.73834766
    1   -3.41106692    3.10421067   -9.88904085    -48.26003406 -122.54346652  116.71808686     15.79079537   40.23833817  -45.04721157
    8   -1.17831291    7.62966221    3.67567575     56.27830724   67.90652850   28.08277692      1.00948550    1.35577254    0.35340210
    1   -0.86887786    8.56242160    3.30298101    -24.87013284  -75.59873386   29.45551853     -8.27138718  -24.83481485   10.66631084
    1   -0.65027631    7.54027173    4.56046061    -34.01057440    4.81535858  -58.45998158    -10.96341298    3.28836872  -19.15021091
    8   -8.93574205   -5.65286005   -2.13286838    -43.87453208   -7.78693248   61.67854165      8.05460828    1.03439944   -9.50335105
    1   -9.07831070   -4.87127855   -1.46610155      5.00757308  -42.51581823  -36.25280085    -25.39172131   91.26055588   84.38325815
    1   -9.55995687   -6.38920833   -1.73059664     37.13837527   48.02000553  -23.63418208    -87.99236445  -96.41900002   55.00980768
    8    2.55696040    6.12109309   -9.78873427      7.85508408   23.06036740  -39.17434248      1.23990376    4.24804208   -4.88814440
    1    3.39168528    5.70502896   -9.55935396     17.72947506   -9.60518539    5.79784220     42.48561202  -24.87009787   14.55950705
    1    1.98278438    5.83998099   -9.09965985    -25.16739032  -12.99537136   32.76123040    -50.59097318  -31.12809905   62.67512122
    8   -1.54426527    8.66930109    9.61552272      2.47751401    9.40330370  -10.50848127     -2.30539056   -0.23963309    0.93522985
    1   -2.45919954    8.80659723    9.90543794     -7.15285417    1.58033935    3.32399184     52.99475620   -5.21847562  -16.17486366
    1   -1.27756524    7.93624234   10.17874350      4.62758798  -10.92742787    9.46822281     -4.99023917   23.10061658  -15.25131374
    8   -3.38300566   -2.04912089   -4.18077251    -22.22061111   12.46910852  -33.14843615     -1.04855251   -0.28232123    1.06520250
    1   -2.43691227   -1.96603507   -4.01820465     12.57284762    2.68569778   -2.32594720      8.16877825   -2.39217125    4.14673944
    1   -3.50267129   -1.59578623   -5.08056681      8.83924053  -15.50953724   32.76576736     -2.20796742    3.58715307  -11.62137019
    8   -8.56900560    2.85790794   -7.78417489     45.82918930   30.06857058   27.59748615     -2.67102844   -2.31321986   -1.63392443
    1   -7.56227522    3.04190951   -7.87452365    -51.04607611  -10.41719245    4.02510147     48.88785489    9.73787085   -5.56296928
    1   -8.80822658    3.42484197   -6.97791421      7.11790110  -21.48474467  -30.31451361     -8.45949161   23.20896394   32.53193034
    8   -2.91403808    5.66560447    3.20912821    141.09188297   86.87602900  -75.82229043      2.50459883    2.27460327   -0.86101425
    1   -2.19380060    6.52574372    3.39350186   -101.74807048 -121.43872514  -23.61228054    -31.43431304  -36.44459703   -8.47272689
    1   -2.55634416    5.28251131    2.26002044    -40.64762760   35.94901670  100.42778965     -9.14496443    7.34845237   21.86681608
    8   -4.70919901    5.31852083   -6.45804956     -6.60955585   23.53854718    8.59863069      0.60525072   -3.15497706   -0.38045220
    1   -3.98877645    5.89646875   -6.79437188     -5.96998665   -5.09158994    2.76999204     16.49415224   14.94736929   -9.60524052
    1   -5.33441443    5.98933378   -6.05634468     14.21878264  -16.74883510   -9.36812245    -23.41216625   24.37760001   12.22122448
    8   -0.93550283    9.01183167    7.02791125     -5.33252511   17.59442430  -34.41569602      1.70946122   -8.97032828    4.72544066
    1   -1.13992624    8.82709413    7.93547569     -5.27000023   -8.99766340   33.42395381     24.67880591   30.48156312 -113.87196994
    1   -0.54163662    8.18448124    6.70140517      4.56693240  -10.15932978    1.52533568    -53.12157338  111.25064926   40.88762449
    8   -9.13455290    6.19828791    1.84963416      7.45410849   -2.80545660   -1.87689608     -3.78876594    2.35989192   -0.02692097
    1   -8.29344562    6.22065105    1.33968426     -5.69399310   -1.75204477    5.49072667     36.62635582   -4.29483965  -22.46271250
    1   -9.03447041    5.38099111    2.38542995      0.81815751    4.84423264   -3.86909027      5.79481445  -29.38520530   15.77312888
    8   -3.97001461    8.78631226   -9.59398695     -3.40225164    0.45395349   -2.75660128     -1.38451358    3.01852195    1.42000913
    1   -4.42208997    9.62837022   -9.82891204      3.93529082   -4.44317721    3.15897719     12.11299791  -22.43547790    3.80038383
    1   -3.97675337    8.82005599   -8.62267320      0.17312796    1.25366924   -0.80662044      0.34364609   -3.89643100  -24.55295471
    8   -8.89409981    9.44491864    8.69216968    -20.91573698   17.73287261    0.66444094     -0.29177373   -0.39621785   -0.78525489
    1   -9.65241613    9.57189381    8.06324156     14.27202482   -5.41619775    8.91414234     11.79983550   -5.17804189    7.30485336
    1   -9.01131534  -10.21793091    9.29625540      5.76584838  -17.02959299   -9.57192833      0.95500104    6.30581389    9.29386478
    8    0.75345902   -0.94732512    4.45235956    -29.87967383  -49.73611765  -14.44275128     -0.62968835   -0.22370966   -0.44633806
    1    0.73174467   -0.11673034    4.03868349     -1.16694807   41.01428232  -20.18076945     -0.36783293    0.51817233   -1.66245890
    1    1.35745375   -0.80448234    5.15273068     28.92575048    6.20492669   33.85607630     10.64802482    0.89526583   11.15658622
    8   -4.45640780   -9.14943838    6.38065223     47.19247687   42.57798777  -14.15776833      1.83748054    2.73674282   -0.12724355
    1   -5.24732911   -9.52986873    6.64921370    -55.16488233  -27.41209464   18.13708542    -40.48487531  -21.44365575   10.76999980
    1   -3.93058608   -9.92177863    6.16764995      8.30557382  -14.05198562   -3.67061838     14.86525619  -22.43726121   -7.35967612
    8    0.48603930   -3.89011240   -9.05300450     -3.82222104  -13.57305951   -1.46380810     -1.37379099    0.47233658   -0.90684648
    1    0.72846509   -3.24700041   -8.37461766      2.31907001   13.40681921    9.21786619      2.61837199   14.13476305   12.16096049
    1    0.99737636   -4.67593575   -8.78480418     -0.83460977   -1.49925543   -3.61065239      9.81992925  -18.28968471    5.52244778
    8    1.98038293   -4.79015360    5.54546904     -2.56774731   -2.31803395  -13.12955501      1.97484192   -1.32215354   -4.15903084
    1    2.50271901   -4.85868327    6.35749954      4.69703785    0.02450699    8.76081012     20.78085041   -0.93024354   34.81163196
    1    1.13628022   -4.43499840    5.87054429     -1.96826084    1.15039486    1.70659218    -49.26424383   22.05276241   19.09667359
    8    4.87007177    1.72818085    9.05113038     -4.43295067   -0.53053330   -4.53277825      3.64577623   -0.75913661    0.21760455
    1    5.40835624    1.18627469    8.44810463      0.32627446   -3.30015545   -3.54479060    -30.16906037   29.59639808   29.89032117
    1    5.55455315    2.11789346    9.61223346      5.59365093    4.74082236    7.33127983    -40.82553868  -20.74507364  -31.97739010
    8    8.82979658    1.45126005   -4.10131836    -40.79076869   -7.13234834  -22.19820166     -3.71154630   -1.99330851    1.98812250
    1    8.46878233    1.59218757   -5.03553056     13.81187789   -1.93024726   28.44662629     -1.19472399    2.12564209   -4.77838697
    1    8.04849385    0.99443345   -3.66734624     21.32857829   12.37593318   -7.37151791     51.89001749   32.49288194  -28.97598227
    8   -9.79054764    7.95964053    5.50123020     -4.27983115   91.63376245  264.96905166     -0.51423047    4.28422753   11.01182752
    1  -10.20455800    8.87841500    6.18460845     80.13559580 -184.14658153 -140.97893723     49.74990918 -117.48228340  -91.33600630
    1   -9.25903464    7.31632385    6.28483518    -81.71349177   95.81117651 -122.97974561    -39.01660103   46.16510307  -64.04930761
    8   -8.44946373   -2.60799630   -8.82962807     -7.12404414  -21.02775235  -35.84864647      3.80860402    3.63895632    0.07389617
    1   -7.73269314   -2.28001420   -9.41587260     -1.01648488   -4.18492366   -1.72211582    -42.48447454  -25.74339451   38.08026894
    1   -8.21648799   -2.19741415   -8.02655254      7.78027591   17.87329191   39.93410681     -8.49166419  -22.93033940  -39.25616923
    8   -7.73149853    4.02339192   -3.55007316     13.48747519  -66.40501608   41.98591785     -0.30787070   -0.13217120   -0.17560320
    1   -8.24132538    4.21903673   -4.28253471    -37.93790312   14.61564360  -55.75313476     -3.78440808   -0.42061031   -2.33158138
    1   -7.34402931    4.82973720   -3.34435635     25.98676642   54.26514915   13.37930272      4.00016853    4.45412534    3.34513280
    8    6.23857297   -8.47620351   -4.32480987    -72.77138100   -8.05213765   89.27947769     -0.72575441   -1.16042022    1.66875295
    1    5.43870545   -7.94831621   -3.82816755     78.41785521  -52.93521917  -48.47255217     -1.13641310    6.60694768   -5.67858885
    1    6.31803570   -9.32479686   -3.72688818     -6.13576963   60.09549104  -40.49189624      4.79357838   18.18000670  -19.86274791
    8    3.56524868   -2.32691563   -8.78884392     11.05805470   10.75794297   50.40417171      0.40756281    0.08016100    1.10075153
    1    2.64834470   -2.10183128   -8.47365810     20.88576765   -3.46414542   -4.82699233      2.75739087    2.63007658    1.89339331
    1    4.13358806   -2.11253803   -7.95590175    -31.68098294  -10.20368513  -42.73794966     -8.88499487    0.49665918   -9.58565253
    8  -10.18727688   -3.91103608    5.91605051     13.09806954   77.66329735  -84.65852218     -0.70000550   -4.44690864    4.85988233
    1    9.76439383   -4.51221418    6.31124328    -65.13933783  -75.54480588   50.57612240     49.48076577   62.18570724  -45.63278264
    1   -9.42487864   -3.92085264    6.43218655     52.71209707    0.57731865   34.48117192    -42.13177558    2.60460980  -29.99434897
    8   -0.83332574   -1.15436569   -3.56335363      7.76434498  -91.17649274 -133.53639808      0.14298645    0.80940067   -0.10277434
    1   -0.68960616   -0.29142309   -3.69677331     15.86853070   96.85103260  -12.56974683      1.47043996   -4.76675752    1.56584048
    1   -1.00444151   -1.19697813   -2.74047403    -27.96191852   -5.36952106  145.74582721      0.76619623   -3.32958424    0.97885253
    8    0.16632717   -6.66391417   -1.86133293   -323.19557903  169.32791686   44.89140743     -0.28191331    0.30223384    0.46849279
    1   -0.60662706   -6.60415595   -2.77261453    152.87752190  -12.50054382  172.33279552     -9.78831297   -1.74582777  -14.29563209
    1   -0.51395387   -6.04420049   -0.96959538    168.20764758 -151.55814212 -214.20951194     -6.94802582    6.54641868    7.77467057
    8    2.85502083    7.97340581   -0.48872248    -53.98885575  -48.55568252   14.80917981     -1.21900414   -2.96707138    0.76827700
    1    1.87056691    7.78215155   -0.19615850     63.22662667   17.28492144  -20.37598909     27.87995941    1.77947194   -9.85231351
    1    3.22692892    7.03514676   -0.53614594    -10.47869242   35.77640123    0.33870784    -18.33222963   27.35045248    4.28404892
    8    0.46420805    5.64677796   -2.10202856    -10.30330085   -0.83592058   13.14114769      1.22053798    0.19360573   -0.96910812
    1   -0.19444229    5.22534883   -2.69676505     17.18546431    6.15288991   -2.12116794      6.61820064    6.26861567    9.98870829
    1    1.25666348    5.81278883   -2.64869025     -6.46692064   -4.95070157  -10.88637627    -21.00022084   -2.47482223   15.37514125
    8   -0.42746829   -7.77866574    5.08945306   -172.30769558   45.50282421   -2.32190125     -0.09242017   -2.35318480   -2.87429400
    1   -1.20819308   -8.06157604    4.35573177     99.47420259   33.95795684   86.26569438     15.73252553    4.59814397   15.30352181
    1   -0.99746732   -7.13413923    5.78986172     75.13251244  -78.31531619  -86.86275436    -22.62866035   26.74603528   32.47814444
    8    6.64640124   -7.94916702    2.97015167     63.67042920    0.05617368   33.56516735     -2.59255989    0.61661061   -0.43402642
    1    5.85999564   -7.84028027    3.46082394    -41.70583821    5.86400864   26.59160003     24.63093302   -7.59025327  -18.19803454
    1    6.33762772   -8.00068526    2.10800478    -21.27658595   -3.98384500  -61.66046050     11.29774340    0.23858528   31.35059219
    8    8.78772008    1.53068118    8.46861092    -16.69678979  109.00000913   25.98560996     -0.60070954    0.24784214    0.56900188
    1    8.11332290    1.90636055    9.19350060     53.58895894  -28.80838146  -57.96608960     14.33602689   -7.50499961  -11.00022112
    1    9.21884833    2.42881703    8.09416097    -37.31411551  -75.09715523   34.30007239      0.91456423   -6.62101939    4.58788167
    8    3.54847456    3.41467266   -4.40697381   -149.61199082   73.38918994  -38.31026842     -2.14197108   -0.09226251    1.13557606
    1    4.26071599    3.50825941   -4.87464025    107.23753253   14.55187814  -71.64330030     38.23653154    3.19853890  -24.77590716
    1    3.80445320    2.90365855   -3.79363472     44.35897639  -92.68155202  110.63383855      2.36408559   -7.25297929   10.24688388
    8    6.58567087   -7.97590356   -8.89778120    -63.59819758 -122.18105023   99.33160316     -1.17334168   -2.81703636    2.06162350
    1    6.82830718   -8.55570627   -7.94947445    -44.18823389   79.94009654 -139.60846667     -9.74783859   20.20219203  -46.37423436
    1    5.63228915   -8.39777728   -9.22914534    109.40927757   42.31104532   47.46212465     32.13677923    5.85759263   13.35395365
    8   -4.64187638    0.44081099    9.64548017    100.98661911  -44.87140911 -107.86952115     -0.53213824    0.00793881    0.69175114
    1   -4.09193642   -0.49605417    9.52629839    -59.36478495   94.78412246   16.53879971     10.47506923  -16.77051561   -5.42775685
    1   -4.31490358    0.95346661    8.74990591    -36.13931820  -46.37547652   91.59730448      2.13525950    3.68672575   -9.34037275
    8    4.98451606   -1.93685009   -6.52699122     31.11646711  -93.06349385   49.52939389     -0.48447527   -0.23237859    1.56830689
    1    5.05212617   -1.76754948   -5.51015244     -4.07158253  -10.00991819  -56.37408592     -0.06893680   -6.86002970  -27.73664981
    1    5.26489780   -2.97292990   -6.58311976    -27.85287944   96.85879825    6.80614215      1.01668802    1.31125939    2.78284447
    8    5.71154611    8.86643640    2.33148843    -25.29421027  -20.36636961  -50.62548796      0.39390781    0.14316085   -1.91737793
    1    5.16581941    8.54385430    3.03598321    -22.29363486  -13.69180608   21.46971369     -5.15114415    0.29107795   10.77586328
    1    6.34309536    9.33406770    2.79826512     48.15118665   34.84333430   29.70386012     -2.79424093    2.20083061    1.63276997
    8    0.38650098   -8.87021662   -6.68007324     56.61260859  -15.34955432  -14.73189837     -2.76699794    3.37804137    2.75393588
    1    1.40374442   -8.71846083   -6.58885056    -57.12187132  -11.34746826   -3.96871119     35.38036737    5.51127959    4.00517416
    1    0.36645449   -9.70187064   -7.25205794      2.12349242   26.06524605   19.08820396     -0.21497786  -49.12635290  -31.84945553
    8   -0.82729355    4.51424087   -4.37566935    -40.48360904   11.87581507  -13.36953572      0.33446209   -1.64649900   -0.01502401
    1   -1.12552974    5.45467685   -4.41603002     16.07169468   -4.39170878    6.68024415     -6.51630056   25.24216055   -2.63351867
    1   -1.67188722    4.10329088   -4.71148269     21.46188108   -7.12859020    8.53216341     -0.89154571   -2.11881414   -1.95993228
    8    4.69290019    2.63664981   -8.13064244      0.54620966   42.80695740   -3.46770121      1.68886507    1.05148118   -0.09060595
    1    5.16084959    1.82129111   -8.11785642     19.51125884  -35.81050267    0.11929148      7.37698478  -19.42783190   -2.35142655
    1    3.78181111    2.35527983   -8.06365078    -22.63784695   -8.87534152    1.65549695    -40.87766752  -14.74187231    1.53838903
    8    2.81571254    5.79531366   -3.50487074    -12.91927934   77.46385863   15.48048234      0.87888200    0.30414538   -1.72858767
    1    3.04703975    4.98144049   -3.86308678     16.82919864  -55.42587189  -28.66359096     -6.02897534   17.81882384    9.55153643
    1    3.11125270    6.44860604   -4.20731930     -5.70817623  -17.83549621   14.96452371     -9.36916960  -15.60068160   20.54534501
    8   -3.02750191   -3.17440669   -7.41193247    299.16030127  -66.23584343   56.90254873      6.62359890   -4.15691380    0.16853576
    1   -3.69760557   -3.36427744   -7.66063677   -250.22204645  -17.24042914  -70.25136485    -94.88676770   -7.62976522  -30.42515582
    1   -2.97880295   -2.32508119   -7.12055392    -39.78754981   85.46887353   18.47288551    -15.88108237   62.93217839   15.17481352
    8    9.75335823    1.11420755    4.73015001   -103.34447772  -40.87853705   13.47174111      1.50453423   -0.00207202   -0.20820774
    1    8.67363236    1.09331256    4.80566366    105.20683111    4.20493266   -7.92363358    -28.35472907   -1.10299253    2.84489979
    1    9.97160945    0.11712656    4.76960431     -6.74180915   45.18214636   -2.51234790      1.69265093   -0.02768473    0.88872043
    8    7.24438765    8.90929986   -8.45985621     75.00861325   12.83983611  163.26483701     -3.68967081    1.06171649   -4.37570589
    1    7.14517530    9.79395725   -7.82684566      9.89049511  -97.40306758  -70.95923332     -2.26097863   38.25321891   25.57684883
    1    7.90813937    8.27307269   -7.83132922    -84.76207812   78.97108172  -82.44008541     60.65741412  -52.73678753   51.82296945
    8   -2.86530626   -3.48671975    2.97221915     45.03857051   56.21576177   54.21284260      0.34260446    2.02368530    1.92472932
    1   -3.25496608   -2.64328637    3.43755603     24.09437408  -53.11994232  -30.71345905     12.72344226  -28.91820071  -18.83253746
    1   -1.87423343   -3.45307121    3.30969924    -68.26951502   -3.83045544  -23.34302034    -21.62232213   -0.69968229   -9.69893916
    8   -7.32498497   10.21074804   -8.87009963      7.98132154  119.01840831 -114.58194753      1.13625763    1.41155833   -2.23115779
    1   -8.05302619   -9.63832629   -9.46477824     86.25546695  -75.04928304   75.56308562     25.54106763  -12.90732035   20.54042988
    1   -6.38597799   -9.83732681   -9.23610163    -92.89000193  -42.05851909   40.94485675    -27.05881764   -3.13123894    6.54469906
    8    8.55870718    4.15330210    1.46062479    -34.84189837   38.84749821   47.99574907      0.31374184    0.17716558    1.32711093
    1    8.18922392    4.54144036    2.34276434     23.20513252  -23.01865560  -50.12288349      9.84846607   -9.89804818  -20.71719213
    1    9.09680482    3.41655599    1.75070227     10.16808734  -13.54270227    7.19014474    -11.65901828   17.06024086   -2.87220889
    8   -7.90759414   -3.87372112    7.31928266     28.32947037   35.64000587    9.74506541     -1.36189872   -0.05545686   -0.24999377