 BEGIN_INFO
   #
   # This is a XCRYSDEN-Structure-File
   #
   # aimed for Visualization of geometry
   #
   # Launch as: xcrysden --xsf HICOLM.XSF
   #
   #
 END_INFO
 # estrutura final
CRYSTAL
PRIMVEC
      20.50808013       0.00000000       0.00000000
       0.00000000      20.50808013       0.00000000
       0.00000000       0.00000000      20.50808013
PRIMCOORD
  927    1
    8    4.43370358    3.23018419    1.99043749     -8.32186397   26.27850378   -8.20251761      0.24372127    2.06889295    2.00996307
    1    4.92519267    3.12154690    2.81346909      7.38786083   -7.01330491   10.46644245    -11.37583577    6.26716561  -17.25702231
    1    4.21396538    4.20129647    2.05050910      1.95680111  -18.18512418   -5.47559314      7.11505082  -23.98832792    1.05067495
    8    9.17552804    7.33719662    0.76281626     24.34026910  -45.07819019   27.52903566      0.24190019   -0.65309925   -0.52625557
    1    8.38578997    6.80496563    1.06986208     24.12132647   15.12198867   -8.51094476     25.77596241   20.83256287   -9.39573240
    1    9.97734736    6.82729773    1.18288142    -47.07416328   30.07501299  -24.09907208    -29.02424137   23.37191822  -14.22562937
    8    9.68465449    9.98875486    6.99427999    117.90516342 -237.34033498   51.53679575     -3.34802959    8.29746241    0.45894801
    1    9.73740062  -10.01202055    6.41798737     14.16390453  151.12271741 -168.98365160    -16.18380999  -73.90595522   70.65027702
    1    9.13735526  -10.18826277    7.47810186   -132.60778198   83.24541314  112.73523594     60.21584674  -41.54953562  -57.99350044
    8   -1.19680322    6.62098075   -9.20240263     91.59208941  -48.36517271   71.86614357     -0.40185121    0.26543829    1.14115915
    1   -1.79962121    6.80438328   -8.44411318      3.23022572   -0.79432827  -10.06376599     -5.00686805    0.02007700   -2.29136364
    1   -0.33183870    6.19825329   -8.68068264    -92.24098469   44.29241299  -60.29030991      3.28751374   -3.40737626    0.31687386
    8   -9.03898740   -8.86742716   10.24416927     20.64641053  -60.37813138   24.19521338     -4.42788992    9.81672201   -3.22801242
    1   -8.59268899   -8.32801712    9.62443002     16.33622360   33.29805718  -30.50575564    -29.82651180  -27.58931253   37.60415162
    1   -9.84151235   -8.42254907  -10.08536354    -38.82052530   29.04826671    4.58780818     34.56296134  -14.37167441  -10.33320625
    8    4.80084043   -1.39092731    7.17644667    171.01357232   26.38050347  -54.21734080     -0.11600736   -0.10648385   -0.86572096
    1    5.57275512   -0.57151978    7.24093389   -106.46794056 -107.40090106   -5.81382178    -12.13921128  -12.04790600    1.17907876
    1    5.35137433   -2.14828325    6.62139860    -60.62348698   80.94684028   62.25541450     -4.72004224    4.96218333    3.98880675
    8    3.09196505    9.97312834    7.04203707    333.46224068 -237.93585693  -53.68519241     -3.13192741   -0.11731041   -1.20309254
    1    2.53060893   10.08800970    6.70616029   -298.11475841   83.14060783 -146.74928929     46.14839762   -3.30405791   19.56103198
    1    3.10149434  -10.11769015    7.65544234    -27.58550261  154.53611157  202.83695952      2.76472439  -15.59386975  -21.76771562
    8    3.59599787    7.54459468   -5.49688300     32.15968386   -7.80286671  -49.74249961      1.18105183   -1.21714152   -1.52585369
    1    3.77180428    8.45819657   -5.19325099      1.43892853    0.12404100    0.42778169      5.98693140   12.38328617    9.60632852
    1    4.26344157    7.43850452   -6.28367888    -37.78274164    5.82649616   43.08275320     -6.61425309    2.72045021    4.45552670
    8   -2.59178258   -6.20474459    9.33190863     37.04874657   60.77678950   38.80641671      1.14073451    1.50972225   -0.90979157
    1   -2.57966593   -5.25389716    9.77517248     -6.66151911  -64.83975364  -32.51564294     -5.91683230  -40.44383984  -21.11515434
    1   -1.76558222   -6.59509008    9.75628263    -25.75436011    5.40163053  -14.52190321    -40.91780853   15.91328665  -19.79437708
    8   -2.27872677    1.64531609   -7.09193849     81.72170804 -109.46984352   16.76959167     -1.09175095    1.02127519   -2.52145764
    1   -2.51637114    2.25713983   -6.49279971    -29.95608495   71.63162655   57.70335744      2.19184229  -14.34084158  -16.17993772
    1   -2.69819215    1.88573757   -7.84811965    -44.55901529   33.04449089  -71.62146910     14.49527545   -6.31505942   35.16865768
    8    1.47466718    5.19568878    4.20113268      6.73650085  -28.16360585   52.55371621      0.13061876    0.00287083    1.17006146
    1    1.62181220    5.85148428    3.55547792      4.69859676   32.07923563  -40.03939953      2.39089173    3.26829237   -6.40096615
    1    0.94249884    4.55397874    3.73300987    -10.06175729   -9.08407134  -14.14057836     -4.19016033   -3.87498371   -2.93984195
    8    7.22273976   -6.01365403   -4.99186088    -17.48980343   24.90102649   10.39082085      2.22450722   -1.19609577   -1.74538076
    1    8.02596749   -6.01987545   -5.50407779     19.35966958   -6.96133133  -12.16585753    -28.93579789    5.38331098   18.63468276
    1    7.04077898   -6.93749918   -4.80572617      1.44617361  -19.22772814    0.08084289     -2.26230125   12.24486758    1.92876069
    8   -8.83833563    8.58057449    3.20712939     35.59090019   27.36766777  -90.76145337     -2.85401871   -8.98665021    6.43505674
    1   -8.90998646    7.76757669    2.66795980     -2.16151354   -1.71678622    5.60373356      1.09513040   57.61005269   42.46510617
    1   -9.13611566    8.32904144    4.01089301    -32.62626249  -32.33368752   81.01316596     35.85797394   28.79540241 -124.03735897
    8   -2.15247183   -8.42270108    3.04981367    126.26376220  -10.81137229   84.61906861     -2.77546404   -0.54511564   -1.90626745
    1   -2.66335307   -8.94838001    2.61693622    -78.37470328  -87.66420947  -68.82676244     22.38251749   31.81268466   21.69265212
    1   -2.55882111   -7.66110905    2.92874736    -47.62203988  102.75889305  -13.78241272      5.64190840  -15.61253158   -0.78615226
    8   -1.47665235    4.26180981    6.61561949     25.10284896    2.61776555   22.33745900     -1.44519711    1.10340262    0.31752105
    1   -1.22979313    4.73000923    7.47674843     -9.47259817  -14.81212777  -27.77710539      6.47809382   14.77413336   28.99050382
    1   -0.67223004    3.69819448    6.45229604    -17.58157997   10.16560507    2.04900352     31.36188032  -20.53063971   -5.60496520
    8    2.78082874    1.08520182    1.69697515    -14.02620826  -17.24243007   39.16634571      0.29431845    0.11244972    1.68865857
    1    3.33977330    1.85557206    1.76314845     16.45456392   21.19369392    0.08540547     -3.71851547   -2.58540767    2.04114657
    1    2.71861285    0.94256951    0.76736205     -1.76717212   -4.65630952  -37.88716903     -2.18832756   -3.96688105  -23.33725887
    8    2.13354743    1.85395891   -7.89493008     48.02193795   19.66600584  -31.15152232      0.64577037    0.84896864   -0.42889422
    1    1.57275801    1.21330815   -7.55991057    -38.28532453  -48.97573556   19.22673128    -18.91782460  -18.57973545   14.25713044
    1    1.87920074    2.58619537   -7.36689341     -9.24721959   33.53277654   20.41766533     -9.43854988   10.29006819   10.84132485
    8    6.06283385    0.24158349   -7.66566832      3.52351933  -33.93800852   -3.04573675     -1.28239288   -0.38937145    0.98424235
    1    6.63612308   -0.34474002   -8.24698854    -15.56442221   16.63500311   15.60401467     10.44383706  -17.71769370  -18.62248206
    1    5.53946058   -0.45009544   -7.16288401     13.57287628   18.57501259  -13.49915255     -4.53041524   -3.98634757   -1.66250826
    8   -0.29198313   -7.06900001  -10.05909389    -54.54083116   10.81458024  -12.43954571      4.38697716    0.78821744    0.98344165
    1    0.52209075   -6.72923528   -9.73654183     42.22076512    7.37526734   12.36673944    -22.90006612  -17.20910850   -8.30973858
    1   -0.10203890   -7.97281179   10.20976570     14.09810030  -22.34117351   -4.35116245      8.02310298  -10.23937364   -0.37306177
    8   -4.03726415   -0.27711150   -2.24542562     15.88309487   -6.44126418   11.02980427     -1.45513052    1.07189096    0.23901551
    1   -4.02521817   -0.92728511   -2.96699213     -4.39168643   -1.43599938   -5.39650221     -1.00699693  -11.43732252  -15.39586508
    1   -3.19402364   -0.51229045   -1.78076135    -12.86961606    7.06689933   -2.82823421     24.46550030   -4.90681323   12.40047054
    8    7.14067259   -9.47093591   -6.78362159    -72.55032421  -61.27461595  -71.21843424      3.80791358    3.11389206    3.39408342
    1    6.71938352   -9.24125743   -5.99869896    -20.80759912   18.95628899   54.51691972     35.41344990  -13.33939019  -53.98083135
    1    7.97290665   -9.15441598   -6.68400845     86.65086452   36.14439581   19.90725844    -71.96886483  -28.34692144   -1.01262271
    8    1.33514067    3.69863208   -5.98743956     32.53526642    8.52362797  103.65537291     -0.81211110    0.20761019   -1.39203129
    1    0.59231847    3.99493681   -5.33111825     42.81380677  -18.10427683  -42.88836596     -2.87704669    1.85991883    0.65127339
    1    2.15855705    3.51034089   -5.31997565    -76.34226700   17.09434961  -67.12616166      0.49672259   -0.79698185    0.48338179
    8    6.40489964   -0.39090382    2.81827137    -81.88230814   41.13930860 -250.58549565      0.48501197    0.18815734    1.19862987
    1    6.88991813    0.18383731    1.89476557    -87.97704708 -104.20104187  171.82743243     13.30716628   10.59204071  -11.48125013
    1    5.39071845   -0.76510846    2.37245036    173.86138365   63.13313422   79.00967172     -5.35194326   -5.68561315   -1.99571112
    8   -5.16546529    2.29869431    5.38769835     25.58914643    3.95159358   -0.99533674     -1.65994420   -0.28463761    0.00926756
    1   -4.80815714    2.07247652    6.28057486     -5.42507064    2.80871729  -11.69675420      2.00851661   -0.72973548    7.01994590
    1   -4.32600905    2.54934782    4.89947825    -21.64394349   -6.42590652   12.29959324     18.41812571    5.79215587  -11.44416850
    8    2.37229552   -5.56546598   -2.89440962    103.49980526   33.56327827  -21.31185088     -2.45860292   -2.15690410    2.97966568
    1    2.07208685   -5.28803013   -3.75266580    -11.58368292    8.06009757  -25.95090861      3.19212792    1.28655326    0.24799073
    1    1.64715567   -5.90101863   -2.53113280    -90.61895096  -40.39496961   43.11932483     56.64904539   23.19176797  -24.15034872
    8   -3.70736074    2.33389372   -9.18787969    -11.07907165   -3.62670728   33.94082491      0.13739128    0.01929761   -2.66204238
    1   -3.98899925    1.59166323   -9.71910091     -5.94501175  -18.35185941  -14.21954834     18.15102702   35.00205237   31.70572656
    1   -3.44574874    2.97217686   -9.83961579     10.33640572   23.07772945  -23.96486572    -14.70945962  -39.83441500   46.10147488
    8   -1.21391236    7.68527866    3.62545522    -55.45268372  -60.83991624  -22.11331905      1.56976117    2.09164108    0.45042004
    1   -0.94615450    8.49081016    3.33087829     25.21391398   69.72478710  -23.25125960    -10.98220663  -21.98130075    5.68981364
    1   -0.70680101    7.53680834    4.37588183     32.31900755   -6.27418241   46.98156963    -10.92220474    1.18919994  -13.91948863
    8   -8.88121516   -5.65551492   -2.06293805   -172.48765700   79.00951695  259.08297613      1.34997326    1.71076362   -0.61704711
    1   -9.08213038   -4.72704554   -1.27581203     47.14488855 -191.75480754 -169.71162248    -10.07514516  -19.53120459   -5.76624842
    1   -9.60690710   -6.42775973   -1.59548347    119.95572117  118.59335640  -80.45247137     15.22817064   34.03136185    1.39785855
    8    2.53705643    6.07643586   -9.88280858     -4.98932309 -134.64311885  248.50763806      1.82702167   -0.24748271   -0.45406820
    1    3.50562105    5.58376507   -9.54968795   -139.19052612   75.47243715  -55.77174905     -6.38087698    0.61026604    1.65328887
    1    1.80459756    5.78674247   -8.94425034    142.98682941   64.45786761 -195.13745171     -4.64092328   -5.74413811   10.78156224
    8   -1.54474288    8.71245222    9.64527040     59.31455538    8.63335931  -38.13148463      2.33023537    1.48033030   -3.25425925
    1   -2.39768847    8.85028815    9.92693468    -68.76190458   12.47359886   20.00853623    -16.64231664    3.13479720    7.77768520
    1   -1.28878739    7.98534389   10.20515988      9.71321937  -20.74637303   14.23469382      2.40493431  -10.56295255   12.71876441
    8   -3.44838400   -2.05138184   -4.21490676     36.83358707   -0.95974286   15.89280931     -0.25678042    0.06834931   -0.49658609
    1   -2.46217261   -1.93085808   -4.02147876    -37.12953143   -3.28139870   -9.31614904     10.87536161   -0.04494929    2.20953436
    1   -3.54275849   -1.63023894   -5.08573003      0.63978733    2.91039249   -6.20895423     -0.83676236   -0.85491945    3.56732986
    8   -8.57468165    2.82786551   -7.79549572     47.88033100   57.52937809   61.78795063      3.37887784    4.44224700    3.35271168
    1   -7.55636165    3.02876396   -7.85603734    -63.66980102  -15.60598723   -0.27463785    -48.72869798  -10.85262889    2.04844789
    1   -8.84065240    3.40699281   -6.96253400     15.03083651  -42.38377185  -59.83885667      9.64994587  -25.97538815  -35.79036524
    8   -2.87809489    5.66470976    3.12370959    -89.82608435  -59.33515795   39.19312777      2.50890738    1.07426868   -1.98450242
    1   -2.32860412    6.34062078    3.28592166     66.11063485   78.27012782   15.68145230    -26.57557928  -40.22872633   -8.51913353
    1   -2.57710002    5.32424069    2.32468642     22.98384882  -20.62297020  -54.35248849    -16.25875240   13.52325931   39.38814516
    8   -4.72793359    5.33468338   -6.55011479    -38.28702002   56.61925858   21.94926744     -0.55396662    2.08865019    0.64632868
    1   -4.00405731    5.92437902   -6.87308328     -8.44932413  -10.24959199    4.05518830     -6.54888886   -5.38983689    1.53908296
    1   -5.38418219    6.03027681   -6.13451727     42.18565790  -46.91175039  -26.07931635     11.17308091   -9.54472411   -6.08461234
    8   -1.01154417    9.05930275    6.94581885    -43.74857610   89.54967821  -45.71528525     -3.39050909   -1.69730127    1.27295205
    1   -1.14962328    8.94528896    7.83332153    -10.44585485  -12.72951169   76.28108603     -7.11331888   -2.44392812   13.42968699
    1   -0.62341252    8.30479375    6.69222296     43.50545566  -85.21866919  -24.69113125     -7.06681400   -2.60681830    4.52583234
    8   -9.13497913    6.18127293    1.84494030     69.24729717  -60.32284798    4.46485393      3.82363368   -2.98122934    0.42030436
    1   -8.23353304    6.19758378    1.31717798    -61.52689720    0.16262315   35.79186213    -43.38837578    0.63973622   28.48816002
    1   -9.02897212    5.31416839    2.41809030     -6.61406099   60.53531375  -39.47560766     -2.49701210   41.99874269  -28.67778505
    8   -3.97605824    8.81497829   -9.65165411     23.10100966  -53.93723385  -29.77556378     -0.13362639   -0.97241283   -0.17380346
    1   -4.38393329    9.61759429   -9.87695922    -24.37412957   45.69135587  -12.03648406     -5.30936500   14.29077476   -2.81275060
    1   -3.96429570    8.85891970   -8.72087981      0.26637954    2.69797864   43.22211652      1.38416746    1.12103660   15.27883851
    8   -8.96635704    9.39015575    8.78717687     22.11970313    6.29495325   22.89674421     -1.90435956   -0.63572405   -1.88379676
    1   -9.69138611    9.49745271    8.17329219    -15.79473167    2.01703509  -15.00403293     35.76935515   -6.25657647   26.92380599
    1   -9.09759858   10.15025899    9.40534793      2.31345226   -8.45874625   -6.62389584      1.45617709  -31.37200755  -30.35512444
    8    0.75479143   -0.94948162    4.51249535     31.73688803   30.79333195   22.72335039     -0.92916622   -0.54740619   -0.09420847
    1    0.72405685   -0.06050912    4.07540164     -0.68804425  -19.92748840    8.51621145     -1.61592084    2.87657715   -3.28278538
    1    1.43287437   -0.78844209    5.25156867    -28.43207483   -8.49002846  -29.63965421      6.22115570    1.59515597    3.06258011
    8   -4.53605717   -9.23243901    6.39567623    -49.18098139  -87.25696201   16.41300593     -1.98340742   -2.96635329    1.02544411
    1   -5.42168861   -9.70084518    6.78150569     79.22966016   45.58138139  -34.35635992     38.64104728   21.41535218  -20.08364005
    1   -3.99194105  -10.06304537    6.12652447    -30.42335264   48.81017771   15.39777019    -19.58958529   23.54424195    9.00151221
    8    0.48582931   -3.90738574   -9.09180591     45.04762890    2.26766375   60.97739773      3.24595911   -0.46385564    4.46299268
    1    0.74433114   -3.21429773   -8.35879207    -18.19653737  -41.83815471  -47.00638038     -2.89777223  -10.18902474  -12.86735989
    1    1.02656273   -4.73306490   -8.82136708    -28.51785304   40.96441531  -15.19861639    -11.68463254   16.42191780   -5.44421855
    8    2.01242133   -4.75454583    5.51187117    -38.82196355   19.28786440   28.59856068     -1.07903304    0.73117398    3.95124372
    1    2.55687275   -4.77816971    6.32787605     -3.06664949   -0.97143420   -6.26301105    -15.76603861   -2.12719395  -24.38467793
    1    1.12702262   -4.39497776    5.86903053     40.41360889  -17.79741707  -18.36749070     27.00074619  -12.12383526  -11.73131952
    8    4.88262611    1.80072946    9.13129579    -83.21415236   18.50303778    2.41990276     -2.06656276   -0.10541384   -1.02597116
    1    5.35571310    1.30995428    8.52239309     37.53204672  -35.13622800  -42.23037841      7.64446751   -8.49645016   -9.17346140
    1    5.53538666    2.10684302    9.69793282     46.93560591   18.79730120   37.00994325     17.51103314    9.94407917   18.68256902
    8    8.81565237    1.38140234   -4.05990746    122.17362275   61.64247083  -46.02973553     -1.33435892    0.78831874   -1.63872381
    1    8.44360153    1.52987430   -4.92644077     -6.29417161    7.88859712  -30.24501372     -5.10665504    1.20990437   -9.83414597
    1    8.16640200    1.01409675   -3.67814715   -112.71266356  -65.67074129   75.04666318    -14.01962983   -6.25611997    1.76878970
    8   -9.92450967    7.90745413    5.55904552     10.79598793  -65.83680192 -197.03213224      5.20123712    0.78207123   14.35210697
    1  -10.19103917    8.50509855    6.03405853    -49.80891225  127.48577930  119.82665960     46.44001139 -136.27213403 -130.99289973
    1   -9.50036356    7.35243757    6.07768176     53.49753395  -65.51531909   81.10855223    -87.03775824  103.96939556 -112.79179057
    8   -8.47772663   -2.62905867   -8.84090618   -110.35522851  -88.76523452  -22.94028866     -3.22401038   -3.03154333   -0.59770982
    1   -7.81050404   -2.37346214   -9.35699893     81.72853639   32.45648278  -57.49679333     52.34134452   12.12961707  -25.73914322
    1   -8.30220170   -2.22670698   -8.07848083     25.82210957   47.81620086   87.74069762     14.05537330   23.05034627   46.91111151
    8   -7.74357175    3.98927016   -3.59517254    -13.55308448   61.88327732  -33.38539160      0.80327980   -3.08012600    2.69368952
    1   -8.32331157    4.20465369   -4.41631991     27.87875887  -15.10410145   40.25734058    -41.60156438   17.11505854  -58.11862443
    1   -7.32003465    4.89522765   -3.40199580    -16.58910909  -42.77705337   -4.35138345     25.78973546   56.00867511   14.28517010
    8    6.22924538   -8.51513905   -4.36633274      3.80398523    1.90787608   -4.69003056     -1.72106922   -0.26266462    2.15685789
    1    5.49789704   -8.04678587   -3.93663953     -7.18041001    7.18119195    2.13758420     35.86524681  -25.69211584  -15.90842249
    1    6.32015365   -9.27690306   -3.77851095      3.38814531   -7.33245728    2.70388649     -7.75299164   23.34148575  -12.67605234
    8    3.60401429   -2.35579165   -8.80777301      0.98332919  -22.04929751  -61.84012963      0.98932809    0.07179487    1.37790838
    1    2.73122767   -2.12719221   -8.54607488    -33.36523211   11.28546239   14.68217253      3.81744376   -3.51544047   -2.00550420
    1    4.09799352   -2.19613181   -8.04236409     26.86941496   13.15973616   50.23706626    -15.28379065   -4.40721125  -22.79220493
    8  -10.20597726   -3.91699428    6.03318393     12.71831032  108.39223646 -114.32036677      4.07633585    6.53221143   -4.13096499
    1    9.79127111   -4.50451468    6.39089520    -72.82819804  -92.69926285   61.28946348    -57.62768687  -66.85024251   38.45102960
    1   -9.45953451   -3.92096834    6.54294768     62.64830513   -7.86474425   50.16801272      8.70779247   -0.50791652    9.16005166
    8   -0.93495375   -1.10742943   -3.57721477     -1.32454193   30.17753140   38.81731059      0.11202361   -2.05742351   -3.14854447
    1   -0.74773747   -0.12151215   -3.71317190     -7.72512367  -36.20898318    7.90737759      8.79624844   37.25456231   -6.49074812
    1   -1.14474350   -1.16834994   -2.57408740      9.89489831    5.69657510  -46.61461835     -6.88381951   -1.72414484   45.51884878
    8    0.14580797   -6.63476378   -1.86878673    205.89699913  -87.12638652    3.66407276     -9.33361287    3.33150727   -0.52689082
    1   -0.38137569   -6.59670172   -2.48960322   -111.42584057    6.13840203 -137.46988085     72.95479993   -2.31071459   81.97649220
    1   -0.28170533   -6.29200816   -1.27471957    -92.99032503   78.10336803  137.45314594     73.41459356  -48.51775421  -99.21698622
    8    2.89479317    7.99774325   -0.53609179      8.46398967   42.30996599    2.51895019      0.57338152   -0.15218869    0.78806698
    1    1.97956515    7.83668639   -0.29372042    -19.42195173   -4.40179132    4.92146701     15.40468272   -2.02029915   -4.35315986
    1    3.23965243    7.13219466   -0.62000068     13.58316449  -40.49072887   -3.14363031     -4.01846726   -1.66580175    2.07439648
    8    0.47272099    5.68198191   -2.16255726     -9.54133197   -1.16711349   13.16257933     -0.63372420    0.26383127    0.14782678
    1   -0.12237071    5.25241635   -2.77566769    -14.72974341   -6.27283579   -4.62911518     -0.59023506   -1.45566266   -0.66185333
    1    1.24381940    5.80397477   -2.71225799     22.86041911    7.42387620   -8.60026229      6.40800480    0.84672186   -0.76123623
    8   -0.42725200   -7.70908556    5.06606733      3.86158715   65.91613661   93.92522994     -3.79441983    1.76729083    1.02366997
    1   -1.07216405   -7.97117494    4.46485846    -44.37185766  -16.13326372  -39.34180177     49.10791228   11.20006039   30.94423788
    1   -0.96105864   -7.11671808    5.75458097     39.38037989  -43.25800315  -53.08551714     48.10576720  -46.46331872  -57.27532058
    8    6.66811901   -7.87945334    2.93611038     22.50508639   -2.90835547   -9.10085644      1.17654088   -0.06299977    1.13287852
    1    5.87200231   -7.74215565    3.44472403    -21.59899550    3.21224878   15.50932258     -4.39689755    0.32149881    0.14566709
    1    6.32042411   -7.96523922    2.03342308     -1.20626593   -1.52733223   -8.05356887     -4.27100116   -1.63025188   -2.50165275
    8    8.82098232    1.57711048    8.56839760    -10.17163861 -135.99654020  -20.57271837      0.66682673    6.48716302    1.40690465
    1    8.24017795    1.86747832    9.20655564    -46.81374376   23.43690742   52.24639519     32.65218668  -21.87925747  -49.74099268
    1    9.17103083    2.31963148    8.29113586     50.25165709  104.02279383  -39.31286606    -33.14975454  -68.16603548   17.57357234
    8    3.53849054    3.39546870   -4.42174074     68.07092481    1.69958328  -28.93083180      1.93107569   -0.60884850   -0.06678737
    1    4.42742324    3.54496406   -4.96090310    -63.49975349  -12.43911125   39.73552750    -11.90172692   -2.57211522    6.81830276
    1    3.83510665    2.80642921   -3.67506358     -4.15878497   10.59915695  -14.66278769     -2.99966908   -1.97748514    4.62036135
    8    6.54806338   -8.02786678   -8.94355342     14.13219410   50.14204265  -50.02149911     -2.45091893   -3.64022630    3.69889044
    1    6.73124431   -8.50644349   -8.17965235      7.50170557  -35.69623565   51.68684827    -20.81764418   33.92876002  -63.26268627
    1    5.73952031   -8.41658239   -9.25681631    -23.48039780  -13.65375833   -4.95547605     38.69156520   17.51954637   16.13384913
    8   -4.66677251    0.41612435    9.63831867    -20.37632439  -12.64264425   44.18618164      3.21556970   -3.25445447   -3.67940459
    1   -4.17089864   -0.42498294    9.55856023      4.18471559   -7.13129580   -2.16499322    -17.84023944   32.22097120    4.42422670
    1   -4.39595402    0.86949489    8.86949991     14.51306627   22.57490402  -40.89623175    -13.99832551  -20.71217638   32.58825701
    8    4.97251789   -1.97174678   -6.52677430     -3.26182919    9.09596532  -30.94939887      0.98277336   -1.33339851    0.49259739
    1    4.98745218   -1.83639486   -5.59735286     -0.55274971   12.09059333   40.26491034     -4.96773421    1.36727908  -12.69738599
    1    5.17732467   -2.90944003   -6.56350822      5.09967995  -19.72008210   -5.66899583    -10.76624788   40.65797685   -2.04465243
    8    5.74432101    8.92794608    2.29187761      5.47059681   -1.35410188  -27.80744109     -1.43143437   -0.25332510    1.27522862
    1    5.18448418    8.59630430    2.98999334    -17.49018043   -8.58993728   17.09779916     13.95666452    9.13337140  -25.42943041
    1    6.42204268    9.39198570    2.79394251     11.97946770   10.21308721    6.26774642      7.83312737    0.65201854   -2.77507513
    8    0.42370952   -8.89400632   -6.71257914     42.94420137  -69.19776766  -55.13420580     -0.16251394    0.04441377    0.19744012
    1    1.43221405   -8.76303303   -6.60385034    -48.09593035   -7.21459759   -5.61785776    -36.85144083   -4.07775863   -3.64609577
    1    0.39682575   -9.71939294   -7.39134382      4.87563242   73.34112156   61.75324974      1.03564694   36.46620515   28.74944658
    8   -0.84721368    4.50306328   -4.43424061      8.76941150    6.12865445    0.33598247      0.93968491    0.29130691    0.52387483
    1   -1.14843156    5.44040302   -4.46905666      1.43127726   -5.33565882    1.21130607      0.87767111   -7.86803803   -1.34481816
    1   -1.64043011    4.04070180   -4.75577110     -7.12620919   -2.91455536   -2.14621441     -4.14370301    0.75615319   -1.70382779
    8    4.70725696    2.59933927   -8.09240251    -36.59172782  -86.19819239    3.13410832     -1.27547956   -0.56911399    0.31453870
    1    5.23403901    1.69044450   -8.07740965    -39.61355540   66.07726362   -0.37645902     -5.26820953   13.15076555   -2.11585702
    1    3.70138974    2.28016643   -8.06345785     77.71696683   23.01837626   -2.34550587     32.24741090   10.77199211   -3.79371869
    8    2.81543844    5.82496547   -3.53663766    -12.91544410  -15.29199081   25.93736612     -0.52113165    0.17149783    0.45387589
    1    3.06550251    4.98369021   -3.93183465      1.96763193  -18.94317055   -1.16992832     -0.25431028   -2.43730750    1.23855182
    1    3.10445555    6.42160035   -4.20024857     11.53943721   33.95312435  -26.44261300      2.51138562    5.85855191   -3.43704560
    8   -2.93798665   -3.22901700   -7.42024087   -260.37975338   96.76717091  -17.69295360      6.12959800   -1.35952241    1.03286147
    1   -4.09946788   -3.43414753   -7.68234125    233.84456953   32.05606139   47.94327493    -62.89529756    1.38931573   -8.34101755
    1   -3.02069476   -2.17433016   -7.10079792     16.15013244 -131.02280420  -37.68414100    -17.06611185    2.33107366   -1.27877206
    8    9.79711452    1.23885654    4.73888139    -67.46506842  -62.05930647    8.84191580     -3.60176665    1.26562751    0.47163960
    1    8.74790139    1.23055205    4.81548007     75.26717096   -0.45435864   -5.23087699     56.11823182    5.12875324   -2.82976506
    1   10.02546109    0.23619681    4.81806636    -13.16032254   56.09160585   -3.51458668     -3.60927754   15.77810502    2.02576998
    8    7.24061000    8.92204400   -8.49894896     29.48090162  -33.49201655   29.75653138      5.43479140   -1.35727008    9.43388311
    1    7.16072609    9.71976674   -7.93116707      2.41245608   -4.51737982   -0.44807229      8.38876520  -61.39823574  -47.04829813
    1    7.86991991    8.31101555   -7.95304718    -33.36996394   35.26626211  -25.22834294    -73.59486540   70.40930543  -65.02191812
    8   -2.88333772   -3.50734749    3.02459674     56.46126947   -7.39474078   10.59885248     -2.10513160   -2.19629394   -2.69391379
    1   -3.23532199   -2.72105867    3.45838312     -7.58300713   10.14866518    5.04493398    -19.45222330   33.60614538   16.72422660
    1   -1.90306139   -3.46816652    3.33169213    -47.79751240   -4.01868916  -14.78756560     47.72599805   -0.84890350   10.64930770
    8   -7.28787836   10.21164186   -8.83326030    -48.23875008 -145.14113952  134.45453109      1.74599923    2.26839642   -0.40530329
    1   -7.84191021   -9.82972484   -9.25876152    -99.06555159   82.97317417  -77.04795996     34.92766286  -37.87693930   42.42801158
    1   -6.56274264  -10.00652593   -9.10439338    145.12384320   58.49610080  -53.82948170    -30.97336651  -24.45341668   23.30787640
    8    8.61287896    4.20713033    1.47789360     17.12105170  -20.55537207   -4.78395379     -1.36939149    0.94535844    0.85052803
    1    8.27067421    4.56973707    2.30358625     -3.32308832    2.71859591    9.38581916      5.17131720   -0.18028342   -8.87191913
    1    9.18261742    3.44635927    1.77977802    -13.06344252   16.93380061   -6.77201014     14.68041513  -21.82871402    8.60770907
    8   -7.92699533   -3.93113185    7.42163912    -70.67187331  -96.79140855  -10.88545023      5.95594295    3.14155094   -1.48266637