 BEGIN_INFO
   #
   # This is a XCRYSDEN-Structure-File
   #
   # aimed for Visualization of geometry
   #
   # Launch as: xcrysden --xsf HICOLM.XSF
   #
   #
 END_INFO
 # estrutura final
CRYSTAL
PRIMVEC
      20.52411634       0.00000000       0.00000000
       0.00000000      20.52411634       0.00000000
       0.00000000       0.00000000      20.52411634
PRIMCOORD
  927    1
    8    4.43383594    3.19789250    2.00862809     10.54574821   20.36814361   25.23258830      0.06520984    0.20428784   -0.45430514
    1    4.94130014    3.06443881    2.86722880    -14.95506763    3.99091718  -25.48742625      4.99424890   -1.47735413    5.64538866
    1    4.22005586    4.17715609    2.06712454      5.66112571  -24.87230564   -1.51007433      0.09764788    4.36907378   -1.27926368
    8    9.14811615    7.38049036    0.77225058     -1.40848963    3.05480290   -2.29054640      0.07914631    0.16141706   -0.13070065
    1    8.37926482    6.85621868    1.05210037     -2.16429913   -1.01677172    0.65427746     -4.86284457   -3.56638316    1.50684603
    1    9.89502312    6.90099756    1.17837478      3.39125133   -1.64330254    0.88275382      8.51286259   -5.53689666    5.62414777
    8    9.62573750   10.00223076    6.88943354     17.29997440  -32.57697795    3.57162734      0.83813843   -2.44153661    1.90289862
    1    9.72890980   -9.88933439    6.17542981      0.24875290   17.87174862  -17.08712320      2.31790218   18.29524411  -17.80221419
    1    8.98337582  -10.09764251    7.45446692    -17.83699215   14.30846357   12.98381570    -10.85152820   10.37970350    8.01903690
    8   -1.21087851    6.61570222   -9.16782456    -20.11551525   13.48253310  -29.57877505      0.21157687   -0.46036052    1.70758944
    1   -1.81704895    6.82377963   -8.44707221     -7.70929946    2.20148863   12.45735331     13.06385317   -3.91794006  -15.37497661
    1   -0.47907423    6.22534003   -8.71429056     26.57435012  -14.68482084   18.71892444    -17.76133973   10.07182308  -10.08111101
    8   -9.05977851   -8.80338389   10.12952460    -25.89923580   46.73407653  -11.41648945     -0.28707871   -3.17656106    1.73676373
    1   -8.59747029   -8.20411386    9.45144349    -17.69108183  -22.93188346   26.02879073     17.69659334   33.01671188  -34.04516206
    1   -9.93463308   -8.29317213  -10.18790901     47.32322423  -28.10240775  -10.82504557    -30.61261688   20.45856214    4.70637005
    8    4.76255479   -1.45896829    7.14233918    -39.34377208  -21.40412486    5.26738824     -1.39183698   -0.73535072    0.21092054
    1    5.40997021   -0.78062917    7.21041611     30.33251593   30.28513901    2.88277793      9.10880709    9.03856278    2.56257239
    1    5.23490307   -2.14789709    6.66474608      9.20338652  -10.68696564   -7.84749567      4.00270203   -8.88362407   -3.96491544
    8    3.17203888    9.84953011    7.15515948    -71.27528655   55.80294912   12.53224753      1.02472826   -0.10884966    0.34448836
    1    2.29902604   10.10053918    6.62546809     62.56311250  -18.99844957   36.22532617     -9.36924353    3.87742309   -7.01396821
    1    3.07983881  -10.05609938    7.98000257      7.39008576  -36.81111814  -48.37723651     -1.13025312    0.51949317   -0.01333779
    8    3.61011734    7.50871409   -5.47011615    -33.76012320  -25.44880913   26.57959600      0.43760870    0.90106035    0.33267662
    1    3.79030097    8.39137683   -5.17267074      6.07273878   29.98041313   10.04767189     -3.18116358   -9.52339197   -2.84498844
    1    4.18815061    7.41711784   -6.20222378     29.17069389   -4.29661932  -35.97164307     -1.04326223   -2.52711864   -0.51390017
    8   -2.59388840   -6.21851963    9.34697239    -40.02541991  -28.59357065  -40.72118560      0.52028103   -0.14939479    0.35673419
    1   -2.58382698   -5.37203879    9.73945944      0.90335770   43.93405977   20.69216551      0.44660951   14.66439014    5.38239874
    1   -1.82809664   -6.61274047    9.71768108     36.20694996  -17.55928238   17.86385097      5.09116453   -3.25433261    2.73059960
    8   -2.21789204    1.59885810   -7.04746045    -40.00669185   55.74665956   -4.88957712     -0.77245436    1.58340424    0.41450944
    1   -2.49227875    2.32013642   -6.36593163     14.94650353  -38.45911299  -34.65091757      7.99869646  -20.71140154  -18.08431947
    1   -2.70141835    1.91557749   -7.89323406     22.51560874  -15.86681781   38.93882394     10.10025217   -6.76589654   18.39627280
    8    1.47878130    5.18691715    4.24925964      2.30693754  -10.11153932   21.18723916      0.09315222   -0.44250067    1.13545541
    1    1.63868834    5.84553346    3.57097593      3.39415017   15.32395238  -16.04113792      4.15868135   11.27052490  -13.51653496
    1    0.94005362    4.54872385    3.76507798     -5.13854219   -5.66033948   -4.84912404     -6.31758661   -8.95222768   -6.50300378
    8    7.28574226   -6.01801804   -5.00268751     -1.17026131    5.54363468   -0.33759308     -0.36201204    0.75105339    0.33072253
    1    8.07564655   -6.05024574   -5.57005002      2.06694050   -0.72168488   -1.21060443      3.25541638    0.06496889   -3.51077587
    1    7.10239469   -6.95412269   -4.81992548     -0.61987137   -5.50042048    1.06851819     -4.28737264   -5.68125081    1.71870873
    8   -8.82986014    8.61638747    3.12225725      2.36040187    8.68956125    1.65992110      1.60628632    3.83868010   -2.70447754
    1   -8.92271037    7.80116263    2.61516047     -0.21917422   -9.04963790   -8.99367036     -2.88188827  -33.10664286  -20.86237172
    1   -9.13894971    8.32788232    4.00092394     -1.64247716    1.35057846    7.40356277    -18.00356593  -18.32946510   54.97587150
    8   -2.10071013   -8.41836453    3.05322133    -21.30426888  -23.97555083  -17.06023713     -1.19766841   -0.18741422   -0.66455214
    1   -2.72086821   -9.05036800    2.55872590     21.74335749   25.12073813   17.59824623     11.86257505    9.29769007    8.64452839
    1   -2.52769544   -7.54917801    2.90833229     -1.09406455   -2.44173900   -1.25237879      6.33412834   -8.98214200    2.58743038
    8   -1.50326395    4.22122784    6.60640356    -33.29272258  -11.57729407  -44.88366932      0.04261297    0.21844316    0.13890027
    1   -1.26254711    4.63455745    7.39319199     15.54532843   26.81914605   51.31634252     -2.68446716   -3.70202765   -8.33029182
    1   -0.74600838    3.66604969    6.42994418     19.37866079  -14.32068076   -4.61686425      1.37210545   -2.16011679   -1.28631859
    8    2.75121048    1.05414417    1.72297762      3.35648694    5.80360827   -0.08942635      0.12618613   -0.03077102   -0.79197805
    1    3.34960851    1.83331209    1.78966161     -3.11061337   -4.77137567   -0.44256544     -1.67308170   -3.54938083   -1.69170993
    1    2.68936980    0.91386243    0.75688570      0.25630519    0.08943374   -0.18582825      1.15396098    0.25405328    6.27239044
    8    2.12223493    1.85774474   -7.82443743    -20.59568685    5.53029431   18.59378037     -1.39463366   -0.06725294    1.21922886
    1    1.48509453    1.16804852   -7.49407036     12.58836752   15.38823753   -5.74483067      9.37623674    9.43551591   -5.24401724
    1    1.84435950    2.65163058   -7.28689330      6.13352658  -20.71845750  -12.53714734      4.53048205  -10.35626724   -9.45759824
    8    6.04193913    0.22854831   -7.72294797     -4.74313275   24.77951436    4.19679430     -0.24093660    1.08942469    0.06837555
    1    6.59459299   -0.33931140   -8.25992279     13.86985983  -13.24669467  -13.79787748     -2.86952908    2.25941115    2.23153324
    1    5.55432414   -0.42176290   -7.21224948     -9.75076801  -11.66688536    9.67193017     -3.98831966   -4.66442093    3.32406385
    8   -0.29182973   -7.12581496  -10.06390912      7.74932439   -4.68944336    3.75208884      0.29775977   -1.65419866   -1.15479622
    1    0.57782254   -6.78972374   -9.75336835     -4.36385367   -0.58964387   -1.66345499     -2.77009021   -1.77705655   -1.53028616
    1   -0.08549164   -8.05892429   10.22850474     -1.83653613    4.64177917    0.60792748     -6.64370391   28.07209621    6.60173421
    8   -4.02321098   -0.26648836   -2.24740178      4.43461253   -9.54792621   -5.57478999      1.61740065   -1.26013392   -0.61194339
    1   -4.01216392   -0.93041563   -2.97840923      0.27148341    7.84523491    8.85408309     -0.43677711   15.93465594   16.41949887
    1   -3.19692964   -0.48674515   -1.76593473     -3.77656285    0.76056600   -3.07720360    -22.43367311    6.37412975  -12.72084344
    8    7.16832473   -9.49432861   -6.75286028     17.27684356   14.81988184   19.79697657     -3.07315367   -3.17624983   -3.89870503
    1    6.72176213   -9.23374237   -5.90192881     10.62998895   -4.36612736  -17.49660446    -20.77399259   11.41124412   36.72890532
    1    8.10330037   -9.12918477   -6.62034066    -27.54585531   -9.43377085   -2.55783718     48.90078591   17.40266874    6.81286932
    8    1.31397594    3.72861877   -5.94711896      3.30621212   -2.07489206   14.92425934     -0.51540209    0.17244262    1.02138705
    1    0.60008030    3.98898186   -5.32193912      6.08019588   -1.96907206   -6.29334053      9.88567423   -4.05462223  -11.32323487
    1    2.07968558    3.54827393   -5.34399508     -9.47588943    2.20787112   -7.93107394    -10.61280605    2.62962681   -7.76053944
    8    6.34263797   -0.43949423    2.78058378     46.10620366  -22.58200547  110.02460883      0.61935739    0.47943468    0.60190934
    1    6.70670066    0.01099893    2.10235536     33.19486341   47.41559455  -74.64827701      2.68368221    7.14331656   -4.28699821
    1    5.55348912   -0.71458135    2.47011883    -81.92483819  -25.86603600  -37.41717096     -5.91152616   -1.36055866   -3.20726013
    8   -5.17743319    2.26915740    5.39527744     -2.99489914   -3.42137321   12.17636563     -0.23040435   -0.33147211   -0.08701193
    1   -4.83576648    2.04865333    6.29089586     -3.57876778    1.69291587   -7.67205815      0.88125895   -0.41726625    2.76395047
    1   -4.36041764    2.52946423    4.94134830      6.27335786    2.13175842   -4.73262017      3.40184091    1.09929571   -1.23801029
    8    2.38140432   -5.58632329   -2.94781102    -61.56599450  -22.88495396   16.35574959     -0.33816469   -0.15294673    0.33025510
    1    2.04960854   -5.29272349   -3.83508907      5.34917952   -4.46134513   13.71376582     -1.12141439   -1.40566365    1.72032021
    1    1.52229967   -5.98847407   -2.51274627     56.08801788   26.29282053  -27.67016581      3.64380891    0.30546779   -1.69933897
    8   -3.74764104    2.34714313   -9.17069963     -0.00279072   -8.92926678  -22.95659706     -0.26349611    0.30153072   -0.88961337
    1   -4.03254509    1.56329983   -9.72582631      7.23574519   20.74029552   13.02952660      0.01521801    0.12440577    0.49328863
    1   -3.47595498    3.01929151   -9.85715094     -5.57719843  -13.54931889   11.68683830     -1.96909665   -2.31848667    1.10746947
    8   -1.18505944    7.67934614    3.68333665     -2.86397067    8.28172750  -11.54022253     -0.29128902   -0.18578407   -0.35056563
    1   -0.87707872    8.54291263    3.33531133     -1.67001899   -8.01978838    4.94908314      1.56671148    0.76881963   -0.19131189
    1   -0.67681931    7.55982573    4.49210870      5.56989058    0.92556022    6.79751199      2.94560305   -1.00515825    5.68519082
    8   -8.93284985   -5.64566283   -2.09100390     56.68419612  -22.02451243  -80.62396852     -0.65100638    0.28138928    1.57460409
    1   -9.07388644   -4.94435506   -1.53121966    -15.58373803   61.41125222   51.68957000      0.84038821   -5.83820623   -4.00582466
    1   -9.49301329   -6.29016879   -1.74242945    -40.65193960  -43.26365386   25.78629669     11.47303820   17.40887661   -5.51592132
    8    2.59458229    6.17005132   -9.81684873    -28.35783578   85.02218880 -109.23851146     -0.31655910    0.27072188   -0.52369940
    1    3.35875779    5.78068578   -9.61942145     88.92746006  -51.17856050   29.14916180      1.46913226   -1.05050615   -0.98382797
    1    2.04731418    5.92514399   -9.17353918    -61.51217902  -34.82368206   80.79253339      5.53402301    2.20448346   -6.88129684
    8   -1.55967773    8.70754280    9.65624244    -13.03283626   -5.73745260   13.09724782      0.00226073   -0.12163616    0.45370138
    1   -2.48731925    8.85344953    9.97610628     15.15171112   -2.03753822   -6.10112539      2.67597016    0.57265524   -0.64350030
    1   -1.27860934    7.96308399   10.24133296     -2.46549901    8.57258105   -7.43189806     -1.93738772    4.80346339   -3.64013134
    8   -3.42005431   -2.04731649   -4.21650612      0.72945948    7.85103701  -16.55477097      0.30665363    0.50405524   -0.94707333
    1   -2.46011341   -1.95378072   -4.05655107     -2.23554511   -0.38476730    0.34850419    -15.62396918   -1.03687275   -2.69295716
    1   -3.51892076   -1.62597345   -5.11300165      1.25377126   -7.15392400   16.15163314      1.40867428   -8.19291386   18.63959942
    8   -8.57837453    2.87457699   -7.80564651     -1.53429875   -5.55930682   -4.06264452     -1.90287269   -1.52977247   -1.32200830
    1   -7.61936423    3.04082140   -7.88827243      1.64779928    1.29703723    0.93427256     26.20183414    4.48165712    0.51181735
    1   -8.81843072    3.41164075   -7.02898201     -0.41706819    2.60786458    3.28755971     -2.98528618   16.39742557   25.50201418
    8   -2.88449955    5.69234143    3.20110289      6.07484680    1.88093511  -11.55925087     -0.60423183   -0.48181672    0.71373813
    1   -2.25323996    6.43767246    3.36569907     -4.51046124   -4.50485766   -0.03142017      9.82710402   12.11886786    3.30806615
    1   -2.57057732    5.33499551    2.33376852     -4.85097913    3.01449492   11.12652871      4.70475504   -6.03550862  -12.38328769
    8   -4.69811700    5.32166082   -6.47278495     10.10932793   12.59758207   -2.44518449     -0.02087730   -0.25297527   -0.22167564
    1   -3.97591154    5.90776049   -6.80686666     -9.29668164   -9.40044492    4.07509331     -2.00971165   -0.99384635    0.61929435
    1   -5.31897506    5.97746725   -6.09219370      0.40365319   -2.77953570   -0.65363926     -4.53519936    2.70897496    1.53266490
    8   -1.02366262    9.02671845    7.02948648     -5.34284127    4.22914414    5.12974942     -0.90694020    1.35624185   -1.18797877
    1   -1.19817268    8.87508266    7.98694758      0.78080610   -0.48233898   -4.36350644     -3.46535801   -5.14009279   22.04500905
    1   -0.60313730    8.19587930    6.74204173      2.10006539   -4.68389545   -0.62066872     11.43189743  -22.79271156   -7.60334358
    8   -9.14596923    6.20624522    1.83257845     -8.43893361    6.46553846    0.01052812     -1.77346145    0.35295722   -0.38053603
    1   -8.31057645    6.23176845    1.34273321      7.25918255    0.21081304   -4.47469216     20.57531886    0.52951991  -10.69184651
    1   -9.03972592    5.40664750    2.36938719      0.79033124   -6.81398197    4.19340662      4.13798749  -16.37514571   10.52481557
    8   -3.99709687    8.79420149   -9.60655657     -3.45511636    7.99797448   11.40455438     -0.08751055    0.40608571    0.00406075
    1   -4.45660851    9.63209339   -9.83846014      3.75246213   -5.77702493   -1.00666399      3.25422319   -3.48542738   -0.76286964
    1   -3.98484014    8.85722075   -8.62575323      1.03555117   -3.06644902  -11.15258975      1.58790422   -0.58121829    0.42393265
    8   -8.97155914    9.42866987    8.70324325     30.07884845  -25.22469375    5.78560844      0.42562859   -2.24327318   -0.74833936
    1   -9.68567745    9.53022470    8.08603401    -23.68521535    6.61322051  -16.90434587    -17.04442156    2.69386176  -14.35646979
    1   -9.07279413   10.18386893    9.28335230     -6.10797758   18.70231382   11.68298013     -5.63702474   30.66899571   22.49781109
    8    0.76426699   -0.91919875    4.50655061    -29.74400301  -24.56065923  -24.36473422     -0.58345329   -0.30454965   -0.24718390
    1    0.74028455   -0.06505392    4.08188848      0.82661694   17.35270228   -7.33601797      0.33425252    2.18414595    2.00130061
    1    1.37920403   -0.78633024    5.20174375     28.24782386    7.75329016   31.06353913      5.46384871    2.12040508    9.05491680
    8   -4.51510930   -9.21874449    6.42166588     11.48922337   16.74403172   -2.40548407      1.25865351    2.31601597   -0.48377791
    1   -5.33676420   -9.62173753    6.72263390    -13.78452222   -8.63129071    3.94104868    -27.26026538  -14.80994621   10.36347065
    1   -3.98654273   -9.99345128    6.19403897      3.16358080   -7.79423907   -1.81858283     11.69138187  -18.36929444   -6.20955174
    8    0.47331827   -3.92784279   -9.07973116     -2.72253818    2.71617654   -4.15043744     -0.20176934    0.30940810   -0.91820978
    1    0.68625288   -3.28173410   -8.37878695      1.88775488    1.50639446    2.72925572     -0.21956154    1.58889773    0.31070429
    1    0.97878458   -4.71581047   -8.82479523      3.07957485   -3.21241443    2.22192115      0.92466122   -2.40301072   -0.08025180
    8    2.01760603   -4.77874008    5.53420908      9.68641783    1.85429334   36.55113229      0.64082222   -0.27112823   -0.84155770
    1    2.56075651   -4.82289044    6.38322485    -17.67627707    1.00785612  -29.70668938      8.07190579   -1.16613879   12.44086343
    1    1.16501955   -4.42041662    5.86447613      7.41278708   -3.23671268   -4.83030497    -14.82736437    5.55548625    6.18936045
    8    4.90903123    1.77443499    9.07619695    -25.67672682    9.94112642    8.81705334     -0.41621726    0.54450769   -0.56527122
    1    5.42485731    1.25351338    8.46956704     14.70041114  -14.66085446  -16.57404848      0.90437977   -1.43152075   -3.78592708
    1    5.58562924    2.11943519    9.66972464      9.49221660    4.66863536    7.79769754      2.65843278    1.41594238    3.41320465
    8    8.82847781    1.43592842   -4.11785579     -0.44716055   -5.08621705   19.52526878     -1.71198477   -0.99674095   -0.05231822
    1    8.47317068    1.57120060   -5.00536018     -6.44812395    2.38719981  -15.42923701      3.82850730   -1.24390901   10.60523357
    1    8.06496059    1.01129723   -3.65773174      5.96740306    2.74370592   -3.60879063     14.10423002    7.64170948   -7.21269220
    8   -9.80052195    7.94275794    5.53415856     11.27442397  -16.54193631   25.73129901     -1.65030650   -0.77237741   -5.05034023
    1  -10.12130838    8.67375984    6.10361499     -0.26533146   -0.16112407   -4.27501096    -17.46850353   45.76271521   40.99502804
    1   -9.35017201    7.34111297    6.20447515    -12.40893815   15.94763673  -22.29627453     33.52063875  -43.69390572   53.07321504
    8   -8.50510950   -2.63933737   -8.85151394     13.41151661    7.21319593   -2.43091517      0.34196120   -0.13854860   -0.75632166
    1   -7.76220477   -2.33951485   -9.43469195     -9.89925841   -5.30402483    4.34424941    -19.33674559   -7.29514356   15.79646465
    1   -8.24804657   -2.22238242   -8.00288501     -3.90948572   -3.32974910   -3.31816398     -0.13262937   -1.24010394   -2.24844412
    8   -7.75257137    4.04274258   -3.57124520      8.38976584  -37.20352858   25.78023884     -0.45468848    1.94796001   -1.22828139
    1   -8.27208087    4.23336892   -4.33194753    -22.09770209    8.51578605  -32.56758752     11.18065544   -3.82263940   16.87372467
    1   -7.35144236    4.87298257   -3.37211420     14.29725876   29.82143434    7.28484304     -9.08470771  -16.06460507   -5.90836674
    8    6.25404413   -8.51378448   -4.34534868     -7.17210273    3.60536666    3.08033749      0.35678432    1.05286715   -0.34736722
    1    5.50700044   -8.04528588   -3.90012227      7.41870801   -3.94921147   -4.23339380     -9.78853385    4.89814917    7.25195348
    1    6.35839211   -9.29117590   -3.77102013      0.54010009   -0.33100326    0.04914775      0.94406284  -12.86959320   11.25436088
    8    3.57094638   -2.37380420   -8.79150306     -4.03918420    7.08844617   20.89574542     -0.05276714    0.10980287   -0.24290618
    1    2.66183120   -2.12955599   -8.49359645     12.36479960   -3.65188729   -4.30559804     -3.07810400   -0.09094753    1.48993376
    1    4.10568369   -2.15999579   -7.97869716     -9.21216383   -3.97178099  -14.94733916      4.16878225    2.47969814    8.43542648
    8  -10.22585930   -3.88757905    5.93304966     21.73957712  -20.86086652   38.05674813      0.19329993   -1.12379869    1.42860535
    1    9.71377559   -4.56702175    6.38794318     15.52801510   18.41674098  -12.67088738     16.90569147   23.35525776  -16.02401320
    1   -9.38159350   -3.91111350    6.50799778    -36.17725252    2.00445227  -25.82296206    -13.80285491    1.38165202   -9.52427518
    8   -0.88018424   -1.14280880   -3.55807824      0.77879862  -22.91929506  -30.60948429     -0.27176727    0.77844241    0.94259701
    1   -0.73043050   -0.21108381   -3.69705705      4.09531406   24.09618261   -2.90124600     -3.06435783  -14.63520429    0.26890217
    1   -1.06927581   -1.18709803   -2.63063946     -6.78730064   -1.06970859   33.96664081      3.51273185    0.76177967  -21.63506848
    8    0.16740315   -6.66365476   -1.85292821   -106.00407696   47.66340629   -6.30232464     -0.98656530    0.92368904   -0.04752089
    1   -0.50357436   -6.61935734   -2.68045802     57.48230547   -2.98966195   72.29662979     14.43921994   -0.42224414   14.29273221
    1   -0.39311717   -6.16919718   -1.09125737     48.14212476  -42.95657352  -67.13787012     14.79229234  -13.29513031  -18.49613684
    8    2.89324077    7.97525938   -0.49563445    -30.38708770  -22.32740217    6.17632972      0.38648614    0.06626661   -0.16315965
    1    1.92991390    7.81159540   -0.22298729     35.87842898    4.77730453  -10.42846330     -1.31253129   -2.55399252    0.98586346
    1    3.25164473    7.05069484   -0.58184360     -8.48692538   18.78778527    2.46499372     -1.05127295   -0.85300536    0.75207196
    8    0.48931730    5.68550727   -2.11695672     -3.00964134   -4.80581567  -12.88835361     -0.47344078   -0.30785872    0.00019464
    1   -0.15214970    5.26500439   -2.73205880      8.81049995    5.40023692    8.72765193      0.34252931    1.21130858    2.34246982
    1    1.27075544    5.83885459   -2.69501200     -5.44597896   -1.26733657    4.77566233      2.84709978    1.79608549   -0.25709033
    8   -0.40680932   -7.77644922    5.10343054     -3.17774567  -11.31186548  -17.40407204      0.51860033   -0.47064429   -0.33713613
    1   -1.09369167   -8.02197980    4.43158257     10.32679087    2.20921933    8.36200492     -4.36559493   -2.06174468   -4.96733859
    1   -0.89556122   -7.20017445    5.70571887     -5.30792724    7.41967937    8.37475246    -10.39278101   11.28352085   11.40135913
    8    6.65992080   -7.94074097    2.94014865    -15.87116644    1.44350908    3.22373405      1.80066219   -0.17349359    0.52436806
    1    5.82657105   -7.81482758    3.46586143     13.14656160   -1.89488369   -5.39972662    -18.99023493    3.26431242   11.86446239
    1    6.31192527   -8.02040910    2.02418259      3.46649461    0.32703032    3.19666350     -9.65820417   -2.43079363  -24.00604836
    8    8.77359342    1.55600143    8.48079782      2.35483793   88.90128365   15.77087828      0.34737456   -4.04471745   -1.64925145
    1    8.13337208    1.90391148    9.21165336     33.85938990  -19.44103111  -39.50272781    -30.04666843   18.95831638   35.23787954
    1    9.20374693    2.45671603    8.13755840    -32.28943399  -68.14453698   25.77896105     14.39221004   34.11583208  -12.36800349
    8    3.52079678    3.40483841   -4.41846488     31.11727971  -23.23626901   19.74290292      0.80504076   -0.57964083    0.50090912
    1    4.35191146    3.52649151   -4.95538418    -16.31527600   -2.88154600   11.39214179     -0.86695789   -0.08072788    1.07223261
    1    3.83628441    2.79141146   -3.66959297    -11.97583504   24.75000039  -29.98524038     -1.38018729    2.14796786   -2.28500104
    8    6.58258503   -8.02564504   -8.93065706      2.50856750   -9.79517863   13.71328256      0.80161450    2.06293083   -1.57955228
    1    6.76936195   -8.55813906   -8.11038494     -2.61936984    9.47051910  -13.96719352      8.91160956  -25.06278299   36.79547230
    1    5.71591270   -8.38745506   -9.20633688      1.91751996    0.73600055    0.52095514    -24.94655748   -9.27682088   -8.80545494
    8   -4.64604797    0.43862553    9.66391498     16.60135845   -1.33989640  -23.39811661     -0.51543758    1.01188228    1.02548001
    1   -4.15233611   -0.42979105    9.57221447     -8.28879736   16.80734074   -0.28976106      7.94922353  -12.00214647   -1.99934930
    1   -4.35229236    0.92966914    8.83624691     -7.27334142  -14.78219206   22.94478858      2.66820591    5.79748152  -10.63593728
    8    4.97476908   -1.98423351   -6.51299854      1.82226843   -5.54940529    6.71529594     -0.22917823    1.06380735    0.37683599
    1    5.02802512   -1.81571629   -5.54346254     -0.93897826   -0.24090233   -6.65552955     -1.49411830   -0.59881461    5.45624831
    1    5.21688564   -2.93818702   -6.55144759     -1.68120978    5.34114388   -0.83938078      3.18794673  -16.20157703    0.39934564
    8    5.72989802    8.88902450    2.32779744     -2.77398328    2.32111656   43.63998803      0.17694433   -0.04142019   -0.72589743
    1    5.13469211    8.53782563    3.07381337     24.37978578   13.92378139  -28.88332322     -7.98746484   -4.32417071   10.52165163
    1    6.42511930    9.40729231    2.83613764    -21.25258416  -15.96024779  -13.91007400      4.05008851    2.84533974    4.42328067
    8    0.39565366   -8.90723572   -6.68334732     20.93469044  -13.43746551  -11.40557234     -0.72814426   -0.08374553   -0.10915422
    1    1.37891235   -8.77500103   -6.57638800    -21.26805534   -3.55445945   -2.82519195     18.86027338    0.89147448    0.63471226
    1    0.37459794   -9.72395605   -7.25671809      1.15332311   17.47324107   12.40113521      1.62621240  -14.62782952   -9.00362871
    8   -0.83834329    4.53525131   -4.37472336    -38.28378464   10.07755851  -12.22882517     -1.40772345   -0.26048596   -0.54532206
    1   -1.13408061    5.49327382   -4.39504211      8.60086683  -24.08104224    0.70757879      2.28025603  -10.86034901    0.81770734
    1   -1.67681043    4.07310934   -4.70262501     28.36760521   14.30031187   10.91435696     15.04312082   10.33471575    7.34681158
    8    4.68768613    2.58844686   -8.15478567      7.45898733   32.32007721   -0.77276580      0.42057727    0.08366045    0.45277004
    1    5.16513263    1.76626605   -8.13311359     14.10212064  -25.31896323    0.28983327      3.74447508   -4.13679774    1.93297325
    1    3.77696807    2.30353182   -8.06021836    -20.81242069   -7.19677588    2.18001395      1.65420911   -0.28186887    1.12495699
    8    2.83145065    5.81166366   -3.53376729      4.41055464  -22.00169523   -4.91879169     -0.07076352    0.33503628    0.46122077
    1    3.07068540    4.92066668   -3.92310588     -5.72526659   19.51577034    9.31799068      0.37601098   -0.07886330   -0.57575596
    1    3.13125946    6.43072383   -4.22797944      0.73981642    2.48188944   -1.76333637     -0.57104986   -1.07495207   -0.72793461
    8   -2.99781120   -3.20218126   -7.42802625     91.10261472  -33.75688351    4.77629984      1.94228677   -0.40654087    0.40190214
    1   -3.84418734   -3.41735534   -7.63955835    -81.24795899  -17.89606253  -18.81601766    -26.81660452   -4.30031881   -5.67444030
    1   -3.07305883   -2.32074112   -7.15092737     -6.71564622   51.77283660   15.76352199     -2.28790338   13.41872623    3.23503844
    8    9.75165770    1.17873899    4.74185746     66.08178896   48.10490595   -7.64368411     -1.10568380   -1.53970170   -0.14991025
    1    8.84272416    1.15429429    4.79881889    -73.98609035   -3.90910315    5.55908630      8.76111848   -0.01560000   -0.28044143
    1    9.98189702    0.27525472    4.78690780     10.31642242  -46.84248045    2.99663864     -5.01698599   12.78116354   -1.29071258
    8    7.30294395    8.90074302   -8.48694880     10.38283488   10.18384658   25.62959811     -1.28217505   -0.15658475   -2.27022788
    1    7.20125097    9.72131485   -7.92442224      1.35489793  -18.70032503  -13.85148975     -2.42148786   31.30247066   23.31686801
    1    7.89646909    8.34019114   -7.91574864    -11.11367628    8.50266310  -11.40876205     29.76660574  -25.06421277   29.31984342
    8   -2.86049211   -3.50105537    3.00247785    -48.22031735  -30.65557014  -36.34624908     -0.23530835    0.40862990    0.16549870
    1   -3.22174757   -2.73366803    3.41317998    -15.08111851   30.30240699   16.50109200      5.80263883  -10.75986268   -3.28145059
    1   -1.99503500   -3.47844077    3.30358817     62.10317256    0.89095128   21.22815320     -3.13103065    0.76377589    1.64838651
    8   -7.35448159   10.23253713   -8.89700846     14.31961372  101.54253311  -91.91847905      0.94794367   -0.78139704    1.60332406
    1   -8.05271882   -9.69953774   -9.47915347     70.52894550  -60.29021149   60.32459977    -12.58268301   13.78036431  -12.28639031
    1   -6.40643714   -9.89833410   -9.21937034    -88.63557985  -36.44226562   29.99613589      2.71693472    2.33699256   -3.06974597
    8    8.59284746    4.20865765    1.46813538     -8.95529661   13.16506130  -18.53162404      0.70112874   -1.09072514    1.14957201
    1    8.24648476    4.56243089    2.29448892     -3.52661349    3.36300217   11.68600426      2.89011350   -4.17587835   -4.91115087
    1    9.12918828    3.46981407    1.74786082     11.62461126  -16.28028636    8.23195616    -11.94171423   16.82605803   -5.63059561
    8   -7.94079746   -3.88645957    7.33863346    101.05646113   34.41915583  -40.46970500     -1.28125466   -0.52910508    0.31225598