 BEGIN_INFO
   #
   # This is a XCRYSDEN-Structure-File
   #
   # aimed for Visualization of geometry
   #
   # Launch as: xcrysden --xsf HICOLM.XSF
   #
   #
 END_INFO
 # estrutura final
CRYSTAL
PRIMVEC
      20.47093048       0.00000000       0.00000000
       0.00000000      20.47093048       0.00000000
       0.00000000       0.00000000      20.47093048
PRIMCOORD
  927    1
    8    4.40154112    3.19278992    2.02163851    -16.63789262  -38.05432630  -48.18098674     -0.34573741   -1.79666085   -2.82595558
    1    4.87300472    3.05208959    2.81286546     24.76400453   -5.91659692   42.17968186     17.51195821   -4.10873392   30.79228713
    1    4.21172516    4.11149013    2.07522810     -8.38484769   42.67315277    3.08060821     -3.29940239   19.34129608    4.31935827
    8    9.13658903    7.38288145    0.75053754     -7.12183485   17.01135222  -10.10880684     -0.22647237    0.19860053    0.38742930
    1    8.39266161    6.87185242    1.08462345    -10.19184889   -7.33049320    2.40186879     -9.83966759  -11.48216386    7.39010036
    1    9.89057716    6.93380603    1.14137278     16.30879029  -10.33176204    6.87188208      9.00909203  -10.30758735    9.34787103
    8    9.65014999    9.97985446    6.87077350    -61.98356176  156.28987484  -54.03666439     -3.89310829    8.01985748   -1.20511812
    1    9.70347689   -9.73175607    6.03992760     -2.55763396 -105.27801728  110.42053671     -0.95843062  -73.14856325   66.34636317
    1    8.93420422  -10.01804596    7.51578559     65.90448347  -46.14185107  -58.01788574     60.55959725  -46.10263203  -51.49081626
    8   -1.18813157    6.60184940   -9.13192247     33.63927486  -17.48257550   26.00577218      0.11315090    0.90814699   -1.55138104
    1   -1.79475301    6.85583258   -8.39770781      5.70437034   -4.17436986   -4.83217752     -6.78182789    1.41125163   11.27606090
    1   -0.39546992    6.18724995   -8.62930154    -38.79778431   18.92116780  -22.64294005     20.10991683   -9.78543589   15.42578757
    8   -9.01125758   -8.82215867   10.10143697     57.81483185 -101.86747055   24.70410648     -0.34849358    1.79925580   -2.74454403
    1   -8.58399889   -8.28560621    9.50343069     32.99367599   46.00849794  -47.93731302    -21.03454295  -35.04872566   42.02575604
    1   -9.74897229   -8.38934448  -10.19179681    -94.03320964   57.51655156   22.68058875     46.65408535  -30.23376618   -5.20168452
    8    4.76288668   -1.45570821    7.07984166    143.34852205   41.97381283  -24.12925768      3.46034775    1.91460410   -0.87597362
    1    5.53847005   -0.67630590    7.17371247    -95.52496324  -88.20838358   -7.18500208    -31.99952476  -24.69568874    0.43250648
    1    5.31289118   -2.20506718    6.59766511    -43.33954411   50.17534705   34.28913608     -5.07594698    3.92839170    3.38704422
    8    3.19144578    9.86380958    7.10049563     45.02217980   -8.21410825   32.54364215      5.01236632   -5.22082969   -3.04197838
    1    2.41804447   10.06952142    6.62413250    -44.37519250   12.97331313  -25.54523246    -56.87039708   10.92690074  -32.41520012
    1    3.09996323  -10.03260542    7.89241958     -1.30963570   -1.92719269   -3.92988663     -9.66668356   42.93808233   63.33446382
    8    3.57657806    7.49461618   -5.50539522     -4.61146909   -2.21477734   -4.20525146      2.86844228    1.15604028   -2.22151850
    1    3.73864060    8.40529039   -5.21223778      1.32526605    7.32185171    4.48370184     -2.71848150   -8.88545937   -6.13333862
    1    4.18721051    7.41184850   -6.26537485      1.93997656   -2.30177249   -1.73419631    -28.90329362    3.61387139   33.81234200
    8   -2.58687284   -6.20356576    9.29931724     66.30356423    9.54770049   49.29634447      3.13486570    3.16185778    2.51099840
    1   -2.56091226   -5.28614921    9.74709610     -1.42076423  -41.32697833  -19.34740494     -4.07490533  -69.95044870  -34.71081705
    1   -1.74281967   -6.66365151    9.72348689    -60.29913499   33.65805612  -30.91249793    -34.96624113   19.06578102  -19.47827295
    8   -2.17955301    1.65305118   -7.02363274     26.60972314  -53.88451739  -23.68889957      4.58666324   -4.47242967   -1.61620529
    1   -2.39540581    2.28086490   -6.38274907    -15.46283738   42.83495559   36.19221783    -30.48108211   72.35847121   69.58881365
    1   -2.67937407    1.93376131   -7.79633836    -11.21926944    9.33400768  -14.58497687    -41.09956456   26.20540024  -59.49944066
    8    1.46903175    5.19447778    4.20458214     12.29535162  -31.66634001   80.72484988     -0.85529692    1.24372550   -2.68176687
    1    1.61878055    5.82514571    3.56904835     10.76092284   52.74185015  -56.42165737     -2.88030762  -25.28264832   24.51283604
    1    0.96759974    4.55956930    3.73672848    -22.24874791  -25.55925065  -23.21750940      6.96733878    8.97326926    6.17305272
    8    7.28122469   -6.01320313   -4.96555313      2.69403757  -12.29833056   -0.67019776      2.25509976   -2.81929092   -2.05087744
    1    8.05945919   -6.04350943   -5.56103840     -3.60277504    0.63708187    3.09552313    -29.69081681    3.46753036   21.72913850
    1    7.09781055   -6.96512479   -4.79275813      1.53168595    9.16667464   -2.01373796      5.29380053   36.76051035   -5.68217068
    8   -8.86004688    8.63608072    3.08187201    -12.68784724  -19.30717979    4.07681020     -0.83186728   -4.01912680    2.96687082
    1   -8.92514649    7.79593699    2.55629312      2.13107818   15.01101190    8.82983471      0.89971533   33.83980596   21.47109469
    1   -9.17623872    8.33198353    3.98219762      6.95435330    7.74799966  -15.87844656     22.99314761   18.65545592  -68.47623865
    8   -2.11565175   -8.40951212    3.04114811    -49.40247401   19.08829859  -29.91896381      2.72409444   -0.33026420    1.00584924
    1   -2.74237878   -9.01725303    2.53672984     24.44947047   13.22048534   17.61835310    -10.38215885  -10.28535604   -9.12821373
    1   -2.58841679   -7.51620381    2.89776205     25.97494926  -34.95493774   10.31855737     -5.80246498    8.61549231   -1.27560858
    8   -1.45168699    4.22361007    6.60117907     20.49654729   11.64944255   32.51036536      2.58366250    0.42492717    2.74183200
    1   -1.16693483    4.67740727    7.46601508    -13.81953687  -16.74199246  -34.37756485     -5.40628852  -12.50089987  -23.52136569
    1   -0.67485400    3.64400599    6.41364433     -8.21508779    5.24965394    1.26368511    -16.67680325   14.89293875    6.87435768
    8    2.72573575    1.06637623    1.68185193    -36.75649274  -44.96760282   67.84427658     -0.50775836   -0.47114352   -0.11986160
    1    3.28345485    1.79180454    1.77799659     39.14799270   50.01312817    1.06562643      3.41718850    1.13706598   -1.49283890
    1    2.65905816    0.95703647    0.77636449     -1.97357058   -5.17906767  -68.39539280      2.74767317    3.09310002   13.16401276
    8    2.08193997    1.84363724   -7.73555675    -20.96486963   -8.33388915   19.84920801      2.54392989   -0.21421089   -1.38759691
    1    1.43646831    1.13729579   -7.42759811     20.68373645   21.01753024  -10.57379194    -19.32034014  -21.23253477    9.25970352
    1    1.80925802    2.60243654   -7.16039791      4.73267473  -11.63206383   -9.82939405    -10.87480821   32.27097467   23.83336447
    8    6.04665816    0.23494187   -7.69557367     27.10094507  -77.00552306  -25.29497859     -0.22356965   -1.19590648    0.92350546
    1    6.67284191   -0.35301037   -8.31334099    -48.94257392   43.61219430   48.61698743      2.37721976    5.48564862   -2.06394725
    1    5.54223872   -0.49125602   -7.18415123     23.97431715   33.01240362  -23.40393665      4.24182265   13.76109934   -3.84256469
    8   -0.29499430   -7.14504693  -10.04540436     66.80726490  -76.29495754   -5.19910805     -1.31311674    4.18734936    0.60870292
    1    0.61771941   -6.82167250   -9.72158831    -44.33591120   -8.59099869  -12.98503141      3.20201873    3.64986949    2.13330124
    1   -0.06938157   -8.15685293   10.18204160    -24.88465481   83.82423980   20.22313789      8.02985800  -25.72347330   -5.08544410
    8   -3.89277015   -0.30173619   -2.22349152     40.92053225  -35.02335547   -2.08055832     -2.05237827    3.23216145    2.04434359
    1   -3.91048539   -0.96878772   -2.98364217      4.04346157   23.23538616   29.79455395      5.09775089  -45.32423762  -48.96492438
    1   -3.03069115   -0.55555039   -1.72635241    -44.11330869   10.10613632  -28.00675017     47.23624641  -17.16476012   23.53078833
    8    7.16825164   -9.53438651   -6.72303935    -66.35815251  -61.36598946  -58.98953717      5.44724694    5.80922342    7.66756033
    1    6.73451797   -9.28139573   -5.94020777    -15.23619289   18.48831998   45.07945022     42.91544019  -27.92913421  -84.01437608
    1    7.97597547   -9.15173668   -6.66469329     82.19604054   41.89420063   17.00412642   -104.64033872  -52.88801232  -15.04182448
    8    1.27279776    3.68435394   -5.86941644     31.38025950   -3.38773373   21.54911417      0.80653624   -1.19968082   -5.18589429
    1    0.59647239    4.03987031   -5.26386053     -0.18504187   -0.65952740    1.41114567    -49.61554183   26.53185595   50.37432137
    1    2.06214311    3.51186041   -5.25154643    -31.20890629    7.13058966  -23.94956860     48.88410975   -9.08030789   40.02326216
    8    6.29216560   -0.43140803    2.78992659    -37.00413640   56.48486625 -184.59607490     -1.78561801    0.17094786   -1.41256218
    1    6.74890773    0.13801490    1.89973692    -66.26891212  -87.66155766  140.98697520     -1.53394642   -1.91562040    4.81396205
    1    5.34150602   -0.79043875    2.37046786    110.22495714   39.52960696   51.24406155     12.54781254    3.25395173    4.59475516
    8   -5.13497027    2.26914194    5.35951628    -14.84902239   -1.20340359   -7.62408035      2.61869376    0.57206823   -1.01661147
    1   -4.80699473    2.04426833    6.23849763      6.33736540   -1.53970206    9.41353543     -0.79327282   -0.62261626   -4.14142021
    1   -4.31951893    2.51051795    4.89229519      8.52418656    2.40043009   -1.27812177    -17.20312912   -7.22346902    8.73861607
    8    2.34306521   -5.55809171   -2.91387133    -54.79335984  -10.46924920  -13.53710282      0.63041083    1.82210441   -1.99151900
    1    2.01796491   -5.27005257   -3.82618837     12.30280672  -10.33048282   31.22757665      5.24395780   -6.37121236   13.56354179
    1    1.49018015   -5.94858798   -2.49843953     42.84415334   18.17663290  -18.76261775    -19.07351218   -8.99216192    8.35538996
    8   -3.72654619    2.34581275   -9.10629654     14.59850542   30.62203724    1.14418618     -1.30409810   -0.63275887    2.28401529
    1   -3.99438028    1.60278381   -9.63913332     -7.50312274  -18.75846497  -15.00433728     -5.50775328  -16.56877272   -8.72477900
    1   -3.40492581    2.99783088   -9.78827383     -7.69976031  -11.32800169   11.09445334      7.46022021   15.28694477  -16.28220453
    8   -1.18213276    7.69415311    3.64510123     -8.61391021   10.90461708  -21.52159237      0.14413896   -0.98554530    1.72546339
    1   -0.86789633    8.55455429    3.30986210     -2.35795940   -3.49284744   -1.29003540     -2.59295927   -5.55393305    2.63395905
    1   -0.69775476    7.59250792    4.45040389     13.05034270   -4.94994235   22.78841395     -8.91455908    0.94172252  -13.33701296
    8   -8.96365199   -5.64036745   -2.12428902    -33.26563010  -42.90191877   15.62398870      0.78267453    3.17786426    0.59059162
    1   -9.10050791   -4.89018949   -1.50931109     -0.94455773    3.64555993    3.69322097      3.01128054  -15.52731632  -12.45065327
    1   -9.61418054   -6.33997155   -1.73232928     32.78616322   34.22412463  -18.81664794      7.18956845    4.51278562   -0.67310344
    8    2.51625485    6.07697142   -9.81220114     83.66325449 -162.94597182  218.11592080      2.40739520   -2.33666838    2.79612473
    1    3.54589340    5.55990057   -9.49361158   -190.07375735  102.26108251  -67.58661630    -49.55455328   28.48455762  -19.44098458
    1    1.83562360    5.74851684   -8.92164266    108.26665430   61.12007727 -153.42187073     12.34435904   12.87757302  -21.83433525
    8   -1.55927755    8.66365802    9.61937204     18.29615025   -1.70874229   -0.96561959      1.02733025   -0.97466743    0.02500397
    1   -2.46816402    8.79608222    9.90039260    -17.73890361    3.61169366    3.81141461    -10.17275814    2.23293445   -1.36871812
    1   -1.28770033    7.93870786   10.21786753      1.29383753    0.54474932   -2.52832121      6.21737408   -9.76069347    3.21025635
    8   -3.36896641   -2.10076799   -4.21832526     21.72027797   10.86333723  -13.55012790     -3.21972831   -2.92222450    3.15225216
    1   -2.37736733   -2.06492211   -4.04559465    -31.35429842   -0.28734652   -7.58928928     48.22057412    2.82674922    9.95022849
    1   -3.45835074   -1.64530802   -5.11079244      5.87120395  -13.10088450   25.39311091     -9.89889165   34.73738152  -68.42246594
    8   -8.47545285    2.78699262   -7.73077481    -59.74489411  -24.16803073  -14.09376563      3.33132019    1.78749919    2.55300076
    1   -7.57858013    2.97310792   -7.78231322     63.30385770   13.98135632   -3.78110811    -33.74590871   -7.03305080    4.25531095
    1   -8.75226044    3.31642695   -6.98595603     -6.70763612   14.74987360   18.65748453      7.26833622  -17.11996488  -26.04479398
    8   -2.85118828    5.67611959    3.16384829    -59.09330611  -30.40722557   40.77075839     -0.24953770    1.26763395   -0.33817828
    1   -2.27613872    6.38729831    3.31034094     39.27759497   46.93098222    8.00321813     -7.61242678   -9.64470439   -3.73814280
    1   -2.55175067    5.31713004    2.36313619     19.01847687  -17.62873458  -47.58732719     -1.40568890    2.76749946    2.95497940
    8   -4.53440245    5.29019372   -6.31705001      4.36670367 -124.66743862   -5.24168260     -0.28064506   -2.50892396    0.52178110
    1   -3.91514895    5.83177957   -6.66222844     60.04644182   56.77005962  -34.43426915     28.00265602   26.92219287  -13.67348914
    1   -5.11925337    5.85659442   -5.96959800    -64.55660641   66.10813605   37.83674174    -13.48385880   18.94010190   11.94649045
    8   -1.00002794    8.98809296    6.98882341    -20.01027845   91.32326060  -57.99305399      1.51235714   -4.77128747    0.50570352
    1   -1.17414700    8.83363595    7.85812900    -14.44947266  -19.22363747   82.31799765      8.64272199   10.00220928  -31.86996652
    1   -0.60286726    8.22835693    6.70200364     35.58477339  -70.70424305  -21.05428210    -30.39655163   55.80999713   18.85300122
    8   -9.10959014    6.20631075    1.81981126    -14.97284260    8.14282897    4.46264170     -0.27373271   -0.61152553   -0.93274754
    1   -8.27899459    6.22594091    1.33523859     13.47406678    0.15050918   -9.31058781    -11.02791090   -3.42739638    9.99093572
    1   -9.00618280    5.40608842    2.35640550     -0.13988001   -7.44347733    5.09697890      0.84489967   10.09003970   -7.64476901
    8   -3.99496718    8.79880161   -9.67543904      4.86781191  -10.97611465    9.97775729      0.79533516   -1.45776793   -0.22488881
    1   -4.41432370    9.63675376   -9.91085600     -5.63843800    9.60104758   -1.97231406     -9.83068147   18.97300514   -6.55007859
    1   -4.01554816    8.83288559   -8.69742610     -0.92529034    1.23434572   -6.92867680      0.79389174   -0.81359080   24.08786634
    8   -8.91736459    9.39777011    8.64317942    -66.68033135    6.88256493  -61.41552009     -4.57460071    7.84472120    1.39606727
    1   -9.71696681    9.55894392    7.95811923     67.59305220  -11.64209457   58.70013476     77.17060428  -17.05084249   62.93126497
    1   -9.00742536   10.14721219    9.25959089     -2.76642342    3.80895593    1.14561569     13.94063964  -80.51184757  -64.47542933
    8    0.73341455   -0.91844211    4.46657174     12.66372172    2.10389101   12.65427039      0.30017867    0.09003619    0.21975963
    1    0.72959228   -0.04668100    4.04498697     -1.58548546    3.03833257   -2.23038519     -0.26095300   -9.84727383    5.36784657
    1    1.38301558   -0.78007045    5.20000658     -9.01862794   -3.77235423   -8.17368865    -14.04445309   -0.92086756  -16.23357865
    8   -4.52482299   -9.19065240    6.40902920      1.67323360   30.02849400   -1.69660658     -3.00872271   -3.51043657    0.77204910
    1   -5.35776516   -9.59103774    6.70490502     -4.89110561  -11.29110729    1.68368476     74.57118098   38.52838023  -27.84309655
    1   -3.98541275   -9.94549730    6.17330523      4.03470763  -17.98688155   -1.58645104    -18.50569582   35.36095845    8.38647972
    8    0.46493203   -3.93331225   -9.00886264     38.44632212  -13.59355630   32.65672446      0.42904031   -1.21659456   -0.47785278
    1    0.75291953   -3.26942178   -8.30757119    -11.14706849  -16.79512704  -21.69622417     -5.95084124  -16.66016264  -12.33592106
    1    1.02420231   -4.74590152   -8.77730363    -24.99542337   30.77859315  -12.10139788    -18.16245392   23.95615885   -5.86911401
    8    1.97602864   -4.78644868    5.54717332    -17.67805556    6.47918624   -2.36400665     -0.22339355   -0.01278242   -0.45662228
    1    2.52441273   -4.84405411    6.34918727     -1.66018587    1.73701897    4.75470129      4.90982289   -1.00479085    6.71523409
    1    1.12109850   -4.40943685    5.88507297     18.79999718   -7.50487270   -2.46475764     -2.88455821    1.68028997    1.30054630
    8    4.89419778    1.72759700    9.07310779    -12.10494729   -8.01010342  -14.03682359      1.76228492   -0.94224074   -0.55557657
    1    5.43973750    1.20025634    8.45704756     -2.08526028   -0.69423460   -2.00417301    -11.72332354    7.68391435    8.56175820
    1    5.56139166    2.04967177    9.67269290     13.96411902    9.93724742   15.68605364     -9.77830078   -0.56213474   -7.83053773
    8    8.78847088    1.48643583   -4.10802532    -44.02202747    2.56398280  -60.97367725     -1.31899861    0.93495151   -0.82502487
    1    8.37910682    1.63613875   -5.07379660     30.35153513  -11.25531661   72.87198146      3.62712489   -3.88860217   24.56716148
    1    8.03157113    1.03121502   -3.63197297     17.93854635   11.21322085  -12.65055292      1.67909480    0.56809572   -8.11115781
    8   -9.78162796    7.94879008    5.46338426    -31.75200851   47.46525976  -44.31712378      1.18920164   -0.82288451    5.07921495
    1  -10.10630598    8.67870938    6.03859250      1.33005607   -2.51345959   -2.63536472     16.37257620  -41.53736726  -38.68684801
    1   -9.38620547    7.38592221    6.05723633     31.51870395  -44.68442094   47.92464148    -25.23879446   30.96937314  -40.92753178
    8   -8.45032690   -2.65685747   -8.83819605     32.15355836   21.25390155   -1.33241368      1.32921548    0.70481054    0.01915629
    1   -7.69760747   -2.31582243   -9.42451811    -26.41924748  -14.22893063   15.23404949      3.09743265   -0.61462075    3.82351148
    1   -8.18118651   -2.25470859   -7.96967278     -8.44054812   -9.78661336  -14.71525497      1.51941887   -5.81391981  -15.04066198
    8   -7.73590239    4.02795934   -3.55288773    -16.79677282   46.60883359  -37.81938109      0.53148054   -2.05500211    1.74755295
    1   -8.29738247    4.24014759   -4.38918942     29.23881305  -13.38005386   44.04999149    -12.17028592   10.96360539  -19.90342004
    1   -7.31575415    4.92242289   -3.33963336    -15.05199017  -35.03502970   -6.93601692      6.82910519   20.43904410    3.78364017
    8    6.22453125   -8.53222210   -4.38560923      3.91928693   22.27489233  -20.65942544     -1.72144449   -1.03289708    3.24032124
    1    5.51155130   -8.03456905   -3.95594499     -6.76098519    2.49509853    4.87739097     30.11232373  -22.46838977  -17.98713738
    1    6.30570810   -9.28577947   -3.82030047      1.95222359  -22.67956663   18.08283035     -7.27027002   49.68765424  -39.63653613
    8    3.58000161   -2.35366883   -8.76425687     -8.22917235   12.34392938   27.05637093      1.34568972   -0.68547310   -0.03113904
    1    2.67062769   -2.12908205   -8.41142657     22.74420818   -6.44748674  -10.57815594    -20.56910283    8.07126234    9.42399169
    1    4.14500620   -2.16720664   -7.96342913    -10.94189033   -4.17639568  -16.80825282      7.35605571    4.47983059   10.09073180
    8  -10.18986189   -3.89671310    5.98852234    -34.62914599   37.11579473  -69.62667659     -1.02602831    2.78523409   -4.38092687
    1    9.73870678   -4.52748478    6.40466271    -28.33921499  -35.43947086   24.90909186    -34.18364932  -39.94685444   26.20189881
    1   -9.43996440   -3.89923648    6.49851028     61.77209659   -2.09660244   44.12299313     47.94303230   -2.46270270   35.09700586
    8   -0.81904712   -1.41771854   -3.51431429    -10.98679503   61.78384584   70.77489332      1.49674408   -0.22634477   -0.38028334
    1   -0.73634820   -0.40327118   -3.69853577     -4.35880420  -58.96632040    8.72618030     -0.26507238   11.66253581   -1.92776643
    1   -1.05757691   -1.42521672   -2.48112880     18.64160748   -1.47723612  -80.60334181     -3.60991902    2.79645801    7.20607784
    8    0.14516597   -6.67173746   -1.85064999     -7.52242457   12.67117187   20.50214085      9.31796790   -3.48444408    0.27766765
    1   -0.47550416   -6.61461474   -2.59875166     -4.85290703    0.71261604   -3.49763759    -75.69385791    7.34034660  -85.25214169
    1   -0.35712079   -6.20492257   -1.12252130      9.35114258   -9.33970110  -16.65986836    -56.50856182   50.77964441   75.89563455
    8    2.84364014    7.95082195   -0.51242612     77.25398135   98.19524419  -26.24956602     -1.47255708   -1.03571661    0.70240160
    1    2.01255081    7.81069814   -0.26094390    -99.26911389  -22.99256151   30.83518697      6.87229202    3.50868845   -1.59802823
    1    3.19792050    7.12444649   -0.56687849     25.14969512  -75.91287930   -2.33628200     -4.07059555   15.71862170   -1.15222689
    8    0.57717931    5.79374368   -2.10827205    -14.24312781   12.98858177   85.07437835      1.01589537    0.79565570   -0.93810672
    1    0.00505781    5.47532204   -2.72946801    -50.93227117  -27.15941419  -48.98335667    -13.66023032   -5.82692107  -15.00411955
    1    1.32195755    5.94314865   -2.60410623     62.85529074   13.35571291  -37.21943422     -0.42269742   -0.82167870    6.13276739
    8   -0.42140937   -7.75486699    5.07821704     14.65995274   -1.40785434    2.33089456     -2.39268917    1.78858466    2.06832465
    1   -1.08425780   -8.00308926    4.41694728     -9.65568633   -1.95858608   -6.35515795     -0.03817629    3.51775506    3.34689391
    1   -0.90258544   -7.15327507    5.66720946     -6.55796887    4.37758052    5.30343628     15.31112211  -18.90489718  -18.94479758
    8    6.62443144   -7.88303767    2.95917232     76.73539525   -0.98258321   29.32471041     -2.35725182   -0.00703002   -1.64718372
    1    5.85374077   -7.79027819    3.46781865    -49.78245214    5.21387632   26.76563378     20.89356276   -0.28295031  -10.47166608
    1    6.30968955   -7.97470826    2.10096238    -26.15851099   -5.58637088  -58.47109498     11.62697479    3.06701435   22.83279351
    8    8.78846740    1.59068789    8.47265004     36.98682095 -248.47461923  -78.51159930     -2.17840568    6.98900158    4.01315266
    1    8.27603225    1.82563435    9.05261723   -109.44132620   69.97922353  130.24876421     68.52393270  -38.04175120  -82.81252297
    1    9.12909587    2.26366450    8.18938921     71.57471184  166.08432084  -55.16717072    -31.12061856  -70.48054415   24.73429275
    8    3.51407300    3.38450075   -4.35816681    -15.04623606   16.68034672  -24.00010628     -4.05758593    2.67610592   -0.58120090
    1    4.30894000    3.49572274   -4.91325631      3.72186637    0.33331771   -0.14144480     27.31164369    6.36807489  -20.50027121
    1    3.81843323    2.79502534   -3.67787425     10.90476497  -18.09839801   22.19741338      8.92564998  -24.94502403   30.76974603
    8    6.54912476   -8.05011346   -8.87709475     39.25240335   57.82143506  -36.52578002     -1.93337025   -4.05848711    3.39347320
    1    6.72997814   -8.53968117   -8.12017591     10.72821462  -34.79205318   50.65512090    -19.49133154   59.92935724  -87.86897600
    1    5.74125251   -8.39756796   -9.15219001    -51.74526691  -23.67824345  -16.57648698     55.99398737   23.95405745   15.94200898
    8   -4.61737662    0.44062919    9.59312627    -49.27773216   45.04247141   35.96823595      1.06281323   -1.36409080   -0.51007359
    1   -4.14404661   -0.34532607    9.52798863     36.41101930  -60.48240377   -4.88732300    -11.69238271   15.01880691    5.77693337
    1   -4.31755364    0.90726807    8.82469754     10.66667236   17.41742206  -27.73870248     -0.83015954    2.29084023    1.53853190
    8    5.03736502   -2.00673216   -6.49875693      5.76043125  -19.95686140   21.21225058      0.68580418   -2.72394604   -0.66276545
    1    5.08383334   -1.82950588   -5.50868348      0.05793432   -8.95946459  -28.69415159      0.84534687   -2.12048884   -7.63680956
    1    5.25268990   -2.99129609   -6.55215915     -6.06684264   29.94139813    6.27711637     -6.65221647   32.23590292    7.23817775
    8    5.71992907    8.87875209    2.31593807    -12.19809740  -14.05255563  -83.63013264     -0.62714383   -1.17144930   -1.04660659
    1    5.17366221    8.57744613    2.99160453    -36.59847947  -19.30183276   47.21122277      2.49267731    1.15747001   -7.12465736
    1    6.35825555    9.34945795    2.76847282     47.07341947   35.49077426   34.98579891      5.50338778    2.41104468    2.32280570
    8    0.37090552   -8.90295583   -6.67878682    -81.78011801   64.97910070   37.08175410     -1.95705521    0.56258405    2.49030780
    1    1.25306319   -8.80189184   -6.59190478     89.13644804   15.18541266   11.74012456     -0.05543824   -1.65048055    1.37288836
    1    0.34460838   -9.63707822   -7.18642601     -7.65038209  -75.33305043  -51.95434680     -1.70719199  -10.06057090   -8.35147144
    8   -0.80248411    4.87113099   -4.37217756    109.69425917  -52.85988087   24.61023997      6.43617949    1.06391325    2.48479770
    1   -1.14871428    5.68177492   -4.41173463    -43.40673423   91.82162992   -5.91449379    -25.60015551   48.66348064   -3.65274618
    1   -1.49944294    4.33916763   -4.60002525    -60.90305483  -41.45560268  -19.36118328    -77.56425755  -52.79686284  -23.41275277
    8    4.69410999    2.58158167   -8.13856481    -21.57275415  -77.43150846    8.52531774     -0.15066861    0.49999689    0.75215776
    1    5.23511489    1.68448585   -8.11668894    -39.30554069   61.70798284   -0.40597629     -2.45670565   -0.21078112   -0.17081280
    1    3.71803742    2.26038639   -7.99790813     59.09295647   18.32448104   -8.42027551    -13.15566460   -6.88727489    2.84698679
    8    2.93947600    5.85306709   -3.46329803    -36.23571834   20.65386837   84.16334459      0.76357969   -0.22392369   -1.28438090
    1    3.11199830    5.03000415   -3.81190491     14.74458272  -65.34883622  -29.65966190     -3.17630980    5.13969801    3.86172741
    1    3.18740148    6.41573147   -4.13171178     22.02599869   45.92640052  -56.73991034     -9.16152427  -24.08368698   27.16541045
    8   -2.97363995   -3.17687018   -7.42959586    -13.92595581  -10.58064753   -7.57691236     -9.39628031    3.11289447   -0.15391089
    1   -3.90712268   -3.39529126   -7.65703207      8.30123794   -3.51167848    0.52465461    128.84507308   32.68876917   27.64426888
    1   -3.07303990   -2.26625740   -7.12565514      4.12970208   13.34213810    6.01076965      1.85309576  -72.42308187  -22.10951361
    8    9.76307186    1.14710525    4.74294035   -150.82999186  -63.86969712    6.71276252     -0.33085554    1.87339301   -0.48715447
    1    8.64384220    1.08198850    4.80201614    146.58681234   19.30638544   -8.43170319    -26.67010442   -2.04108332    2.40537746
    1    9.98930436    0.14706793    4.78706802     -1.97881732   51.18912729   -2.20315129      7.97402266  -24.76777923    1.19734163
    8    7.32566862    8.84128794   -8.45913714    -64.90189306  -16.66783009 -128.96076163      1.16899680    0.76737360    1.83388288
    1    7.23637504    9.56682233   -7.96034265     -6.13775501   79.74214844   60.92664210      5.30534791  -43.69703882  -32.16457111
    1    7.85745085    8.33108770   -7.99635712     71.37680526  -62.06397732   66.69149537    -24.92159287   23.32994578  -24.90278331
    8   -2.88211610   -3.47862341    3.03207523     65.48445994   62.00148678   63.80867569      1.80094855    0.62934127    1.42413159
    1   -3.26911235   -2.62086197    3.50028436     30.03499378  -62.83454752  -34.73790222     -3.70823029    9.74933237    4.61213775
    1   -1.86622083   -3.46114520    3.37359345    -92.60683087    0.65667050  -30.40595229    -12.77827081    2.31850065   -3.90322453
    8   -7.31356114   10.21959138   -8.89521114      7.70423058 -122.49835711  115.31299069     -4.47091277   -1.03337870    1.62005423
    1   -7.88241369   -9.82382046   -9.35173234    -91.89304925   76.85710964  -79.41597064     -8.49478645   13.45509423   -7.77882871
    1   -6.53218582   -9.92160030   -9.16165728     83.64956797   40.35267290  -32.82093958     22.91462843   16.09444340   -9.70233042
    8    8.55415252    4.20460165    1.42671330     50.96256677  -63.17338079   86.95468225     -0.43226692   -0.21477320   -0.14189742
    1    8.23227192    4.58639762    2.32583997     14.30854686  -18.43598026  -52.73900500     -8.00497591   10.50613212   18.64236771
    1    9.17746734    3.38880989    1.75029446    -62.11811299   78.77547644  -37.42197926      3.05481644   -3.31112491   -1.19183299
    8   -7.86057787   -3.84887494    7.37652927   -123.11893601  -66.66138173   42.17264044     -2.45441460   -1.96874644    1.03892156