 BEGIN_INFO
   #
   # This is a XCRYSDEN-Structure-File
   #
   # aimed for Visualization of geometry
   #
   # Launch as: xcrysden --xsf HICOLM.XSF
   #
   #
 END_INFO
 # estrutura final
CRYSTAL
PRIMVEC
      20.34086296       0.00000000       0.00000000
       0.00000000      20.34086296       0.00000000
       0.00000000       0.00000000      20.34086296
PRIMCOORD
  927    1
    8    4.37693291    3.08829692    2.01792955     15.94764058  105.61035897   85.83516754     -0.46881149   -4.02452850   -3.14282882
    1    4.91660622    2.95877243    2.92594128    -46.24500889   11.06479979  -78.81730687     27.69132093   -7.42178308   47.39785691
    1    4.11844320    4.15011534    2.08881220     29.63955348 -116.37197870   -7.58846978    -19.50096094   71.71320196    4.66258458
    8    8.97142523    7.38066703    0.78682330    -27.71093773   -7.27222658    8.44674764      1.24999639    0.18996437   -0.07862090
    1    8.17322594    6.86616244    1.09521695     21.04809247   11.94074510   -8.11901446     -8.98801793   -6.83291438    5.33633006
    1    9.71669119    6.89233764    1.17713836      4.79526200   -4.99443477    2.82190266    -10.10376235    4.87848557   -2.98167860
    8    9.51502464    9.96670187    6.79909690      9.82606278   18.83567744  -26.60890876      0.36041233   -2.88949073    1.46359514
    1    9.62339061   -9.68874468    6.06193035     -3.05735752  -21.84362815   22.95451784      4.87077442   36.23772883  -38.26364896
    1    8.86569688   -9.93918889    7.37817563     -5.21857938    4.00042736    3.81228229    -14.35157023   10.01151130   12.07020338
    8   -1.18780244    6.51143564   -9.06468746     46.89161695  -25.87614085   64.64904561     -0.89377833    0.42087152   -0.89451512
    1   -1.80045762    6.73884315   -8.29972099     17.61967161   -6.98019207  -24.29621583     -1.79486273    1.19657745    3.83719227
    1   -0.37221981    6.07026192   -8.55900332    -62.28735894   33.53028176  -40.15940360     14.88674767   -7.89069070   10.21581964
    8   -8.96686953   -8.71995820   10.07339299     24.72160150    2.46103926  -24.34163556     -0.50838666    0.25467467    0.48224296
    1   -8.52046325   -8.10452359    9.42306317     -8.39807401  -15.41071436   14.99186984     -0.40803179   -0.13328699   -0.59850251
    1   -9.77717000   -8.25001749  -10.04472458    -15.60306434    9.42028938    5.54107423     14.13128021   -8.29621417   -4.31126381
    8    4.71593106   -1.46279842    6.97588481    210.74723285    5.12819059  -62.08703692     -7.05653263    0.00202167    2.18482792
    1    5.51915365   -0.66272706    7.10597694   -119.71951039 -117.62891907  -17.86776536     64.21736167   63.23118644    9.55084659
    1    5.30797928   -2.27235267    6.44007570    -87.58432434  118.22546264   79.42210969     48.29838067  -65.13276319  -43.97650681
    8    3.18254331    9.79784032    7.10399860    -41.48865084   27.96321998    0.06654288      3.39509680   -2.38367185   -0.28683712
    1    2.34352618   10.05227413    6.57108706     37.87089427  -11.49905683   24.82146732    -47.15720584   14.18437989  -30.38287814
    1    3.08956735   -9.94477737    7.91075233      2.80896188  -19.66745306  -25.92693219     -4.33343036   26.48519407   35.73740591
    8    3.58708476    7.46597573   -5.39454976    -98.82430176 -151.86667319   31.90665898      4.18764955    6.06920035   -1.42399298
    1    3.71947880    8.23103565   -5.11250962     30.56796077  151.87193430   51.32231976    -22.36539293  -93.04811041  -29.32786535
    1    4.15170210    7.38945176   -6.06262491     72.36125179   -6.09512347  -84.18751379    -46.27142849   -3.58078305   48.16271633
    8   -2.47507184   -6.17132415    9.19373298   -195.04788415   -2.99636364 -129.53928353      9.06883337    0.51686995    6.47746950
    1   -2.51544064   -5.37395577    9.58039914      0.61211531   87.99177419   46.10418031     -0.73774365  -74.70818918  -38.23731799
    1   -1.83237915   -6.48372447    9.49035814    183.49204082  -84.51105603   88.31080042   -141.25598862   64.58819523  -67.04414996
    8   -2.20821001    1.65493519   -7.00688487    262.26207794 -282.28511038   29.24957401     -9.25041999   10.19236113   -1.90840952
    1   -2.42335449    2.11091030   -6.52981092   -104.23964616  210.62581749  196.39927438     53.42199660 -122.89990909 -109.24131713
    1   -2.58097859    1.79172724   -7.60639150   -150.94324850   70.56730304 -227.53268895     92.54174221  -41.37679101  144.39838424
    8    1.40261431    5.14561493    4.25035515    -14.73652470   -5.15262522  -30.36290149      0.52186738   -0.10604277    1.19290413
    1    1.57049582    5.83328442    3.54385164     -4.31583234  -14.33495441   14.36742851      2.85373208   10.07064885  -10.73253899
    1    0.84170527    4.48615744    3.74143174     17.85605094   21.34455959   15.61747968     -9.80804328  -11.68405644   -8.94986249
    8    7.25010838   -5.94849860   -4.89248760     13.43546415  -39.51009642   -1.96557311      0.30552511    0.42457399   -0.11396430
    1    8.04636871   -6.02706113   -5.45745786     -4.66154078   15.26649314    1.65024812     -8.03836024   -5.66921049    4.41133022
    1    7.08211232   -6.91560688   -4.71993559     -9.14080732   24.55735322    3.59332862      3.59723291   -0.65609799   -4.27653201
    8   -8.77769036    8.57517197    3.03599437      8.24983584   29.04660982  -10.80663198      0.44689075    0.28678809   -0.74001196
    1   -8.89620925    7.76024641    2.54929634     -2.49421878  -18.67722540   -9.95168443     -0.72469984   -3.32443439   -2.32233737
    1   -9.04958507    8.32249842    3.92468610     -5.53394826   -7.11723652   19.61590675     -4.76351341   -3.76649020   14.27339615
    8   -2.14760015   -8.34913267    3.02021342    119.26344191  -71.74533853   64.04661340     -4.17899576    2.99676256   -2.34433996
    1   -2.68517910   -8.91174180    2.57184475    -54.41340076  -52.21519909  -43.46270522     28.44910350   27.40874639   23.84984483
    1   -2.51951132   -7.59409939    2.90261526    -62.19087707  120.52604943  -20.86645065     36.26817013  -72.79147589   13.30019496
    8   -1.46691881    4.17329732    6.58043476   -115.10278490   21.20151005  -67.41706678      2.53646162   -0.35297325    1.70722066
    1   -1.23355300    4.56667255    7.33442986     31.46714019   43.67453273   88.93021071    -12.84962427  -17.94883132  -37.04265486
    1   -0.77980502    3.65156926    6.40392606     83.57478278  -61.42731921  -18.12699427    -28.89898664   21.24529307    6.04563808
    8    2.68881617    1.01056637    1.71901993    104.26948965  115.32314736 -187.34111058     -4.03964288   -4.56490649    7.88792316
    1    3.40398401    1.90519920    1.80401827   -110.11806274 -138.16360165   -9.70690919     68.40473669   86.21501531    5.20448688
    1    2.65296649    0.85648224    0.56039958      5.10817400   22.83413981  196.97981579     -2.99445814  -14.25934903 -129.00953387
    8    2.11031646    1.83218242   -7.77024022     28.00779930   47.06256703   -5.77866986     -0.42671790   -2.01287686   -0.39361355
    1    1.50444026    1.19486088   -7.45934086    -29.11767169  -30.93322021   15.13627654     11.12738682   12.49561763   -5.59296656
    1    1.88010534    2.61039773   -7.19675135      3.13700293  -15.43491588   -9.46233837     -5.73081106   19.88783375   13.72966338
    8    6.03814065    0.24170022   -7.66304444      8.35189581    2.58224732   -7.57709281     -0.30590933    0.15083585    0.39270756
    1    6.60069475   -0.33064832   -8.23638059     -3.84890677    3.45669828    3.40036481      3.87985192   -3.96335694   -3.74641541
    1    5.53586760   -0.42683616   -7.17162775     -4.40355017   -5.34336278    3.80194104      2.02129339    2.12189694   -1.61266914
    8   -0.23296684   -7.07134652  -10.04086831   -218.71250613  208.82715293  -25.47435413     10.05025676   -8.69422044    1.39884046
    1    0.46015580   -6.79253558   -9.74649272    169.90910506   53.50608338   66.15214512   -126.29366043  -40.55865286  -48.95072593
    1   -0.12700448   -7.78547039  -10.16925117     52.96260866 -255.85736012  -44.01134655    -35.69870910  180.70509708   31.10579277
    8   -3.84037555   -0.20594771   -2.25636741    -32.74212036   31.77456375   21.73327600      1.03073548   -1.41293717   -0.65475494
    1   -3.85510996   -0.84027714   -2.94391809     -0.09367566  -29.13369046  -32.07041582      0.25037109   14.61503480   15.93207337
    1   -3.04380667   -0.42684144   -1.80205555     31.01477536   -8.47287969   16.31153687    -14.57159395    4.10073959   -7.45555022
    8    7.10187359   -9.35867749   -6.62356562   -212.15385513 -120.75323257 -224.76174889      7.43105876    1.75483961    6.39637584
    1    6.70163427   -9.21384628   -5.93007482    -73.75501715   39.45086241  154.84988159     29.43304438   -9.31404391  -67.84924953
    1    7.77951696   -9.21737219   -6.49253894    279.05606612   68.87630355   70.74836814   -153.35935927  -18.38494291  -37.12682567
    8    1.37297910    3.66571542   -5.87226004     96.13344274   -5.09587444  186.60435085     -4.22986984    0.44123871   -7.10434117
    1    0.60556555    3.92190596   -5.18638638     64.47539178  -22.23805224  -61.86123994    -32.90196107   11.42245270   34.26715785
    1    2.28925507    3.48513664   -5.15867770   -156.65092241   29.21342924 -124.87750027     92.33217478  -16.51007856   75.34208110
    8    6.27374324   -0.46090118    2.78168017    -88.27321734   -4.90035277 -125.98114251      2.72946115    0.14793983    4.05783340
    1    6.68011290    0.06654394    1.95171857    -31.21747828  -42.85326655   71.51982950     16.47582091   22.20765635  -37.12575487
    1    5.29440587   -0.80107099    2.38297841    120.00257061   40.64260701   52.21062300    -60.45060465  -20.07211336  -26.40298380
    8   -5.12402039    2.18704885    5.30339285    -65.55760569  -27.06698459   32.03350575      1.71216342    0.74525484   -0.99339884
    1   -4.79776766    1.93702280    6.18757912      0.95032981    0.08689821    0.38342514     -0.05202953   -0.42881498    1.63500249
    1   -4.36369347    2.48819809    4.90458433     61.46080540   22.61924010  -32.02422851    -27.15355668   -9.97156128   14.16430899
    8    2.32581895   -5.54893789   -2.93294338    -40.34446146   31.84679867  -93.60044010      0.55681458   -1.39861019    3.46717530
    1    1.97281480   -5.22432478   -3.89755904     34.69567846  -32.00711687   92.69321233    -18.73938341   16.66642087  -47.91960987
    1    1.51568956   -5.94069514   -2.53636573      6.13997691    2.07082898   -2.20320718     10.12457051    4.45487456   -4.47624990
    8   -3.66676422    2.30611001   -9.09026323     18.78163179   61.35334642  234.51818143     -0.66978524   -2.04330965  -10.23099538
    1   -3.90902635    1.68720421   -9.50228902    -60.85816062 -160.83309198 -121.07004293     39.19896981  106.99353358   79.03619089
    1   -3.45257159    2.87930689   -9.65598835     39.88153269  102.20594655 -115.20748603    -28.78461262  -72.75089566   82.33107254
    8   -1.16763732    7.64890068    3.66438272    -47.24325994  -58.49101171  -15.21084857      1.52163933    1.85084691    0.46060954
    1   -0.88299978    8.43900953    3.33925475     24.17709954   66.01016390  -25.68842550    -11.95635818  -32.75780832   12.87417897
    1   -0.69376550    7.54667369    4.45262124     25.48122710   -4.57170312   41.19906590    -12.30456152    2.20877714  -20.23731450
    8   -8.81305127   -5.68555332   -2.10257063    209.66303161  -81.72335700 -266.70599075     -8.29639227    4.30271739    8.34568026
    1   -8.87690333   -5.08593599   -1.72558268    -23.22871953  243.81713982  154.31639738     16.76722090 -158.87475350  -76.84935766
    1   -9.33242361   -6.10402804   -1.79179681   -184.78603696 -160.39074447  107.18415140    112.98362033   89.13744233  -49.65068091
    8    2.60376785    6.00637881   -9.75259088    -49.00110450   -5.27446989   28.30405917      1.57909581    0.06947664   -0.46099838
    1    3.43438241    5.59721136   -9.50248374     18.43667317   -8.20379270    5.17714824    -13.28763124    6.18354887   -3.82191186
    1    1.97770795    5.72249541   -8.99364816     27.21973474   13.94963570  -33.95885432     -9.01481978   -4.21941554   11.10040073
    8   -1.54973678    8.61223406    9.55634884     -9.49462817  -40.77832187   35.71563387      0.76299108    1.31609142   -1.14290000
    1   -2.49098798    8.73968538    9.87811412     25.96687559   -3.55225201   -8.19769054    -21.65253971    2.69151003    7.24064435
    1   -1.23982052    7.84023345   10.15999436    -17.15523607   40.73051633  -31.09466956      9.31056822  -22.43065766   17.18437280
    8   -3.34804372   -2.04170003   -4.21104952     -0.17690835  -25.60412660   47.11658825      0.11432340    1.14475401   -1.83625644
    1   -2.39488043   -1.94710105   -4.05770748      6.83728773    0.51974023    2.63627244     -8.16100568   -1.13243781   -1.64970701
    1   -3.44821806   -1.63347414   -5.03848377     -7.15438477   22.77575715  -47.54671768      4.32287508  -15.32971764   32.25904047
    8   -8.47847154    2.86675903   -7.73444142    -90.62305143  -83.98665752  -80.31845123      3.09517376    2.63537157    2.53596787
    1   -7.62570962    3.01843589   -7.80597109    114.79853566   23.87212857   -6.72010490    -62.59907808  -13.32705080    3.63916909
    1   -8.71668364    3.35166822   -7.04353573    -24.49698989   61.74967491   86.16608174     13.32792025  -31.89185566  -43.80757804
    8   -2.89683129    5.67708638    3.19599432   -135.33137854  -64.52809072   80.37070479      4.41732491    2.15564391   -2.82718741
    1   -2.36259786    6.31948826    3.34345119     94.14062396  108.01634983   20.28795473    -49.12132481  -56.74467053  -10.64545039
    1   -2.63522082    5.34986458    2.43531763     39.62997203  -39.48882771 -102.45715380    -20.97753222   20.95544746   55.04874691
    8   -4.66986962    5.31469897   -6.39080963      6.16926582 -140.66927026  -22.61962961     -0.43843017    5.34910334    0.91133485
    1   -4.01514170    5.83362379   -6.68563617     69.86486506   58.29008469  -31.18086841    -40.51351652  -33.35090235   18.03522968
    1   -5.22028109    5.87877917   -6.04249316    -78.04842923   83.05361318   49.74665927     48.35735802  -52.34815254  -31.05851010
    8   -0.98179000    9.00235967    6.98502573     41.68145669 -190.41288932  102.85431690     -2.00858449    8.73901805   -4.64517813
    1   -1.20556161    8.77584127    8.07393077     29.96471097   36.92279275 -153.30763353    -20.77562862  -26.57330993  109.21545764
    1   -0.50668474    8.01838671    6.63707900    -70.80831145  150.52879788   47.42041360     52.22725446 -110.46793750  -33.99491786
    8   -9.14330399    6.15666441    1.81951986    -25.78927863   23.47318751   -4.68844524      0.88837209   -0.91219075    0.10613339
    1   -8.32100221    6.18416877    1.33512088     20.37970745    0.29398977  -12.43647963    -10.32489078   -0.16297498    6.79636148
    1   -9.03189280    5.37880711    2.35236520      3.40012757  -23.91810818   15.73564864     -1.58728476   14.41252027   -9.53049729
    8   -3.96425559    8.69551878   -9.51359051      6.66882839  -11.16082900  -10.55861416     -0.09470718    0.21934918    0.17604432
    1   -4.39572480    9.52860926   -9.73670391     -6.54520358   11.59320147   -3.11155834      1.84050076   -2.40977492    0.62718235
    1   -3.94420989    8.73576654   -8.55582998      0.25942136    0.72329144   13.73551173      0.17368326    0.05376642   -1.89877613
    8   -8.88272938    9.36200745    8.58388542    -55.86650418   71.55286549    7.32127491      2.18576700   -2.38766186    0.53104327
    1   -9.68585334    9.50127359    7.94549550     48.53684520   -8.75930436   36.95094164    -31.05643467    5.59894453  -24.02643904
    1   -8.99587918   10.16491446    9.24809930      9.43921260  -56.48339670  -46.48314575     -4.29112188   27.97089815   22.29137592
    8    0.75012717   -0.95366439    4.37704627     11.23662606   52.29907512   -6.24516025     -0.71728851   -2.76242212    0.23338810
    1    0.71516299   -0.03190025    3.94448758      2.14477164  -43.95453149   20.96476551     -1.97324203   37.01136760  -17.73551814
    1    1.38101479   -0.80217791    5.13143956    -11.23247024   -3.08514455  -14.21515857     12.11235714    2.95137068   15.03017778
    8   -4.44553681   -9.13947353    6.35632653    -74.92327476  -97.16765525   25.38189748      3.09067777    4.00576585   -1.11145191
    1   -5.37466295   -9.60615877    6.68647808     99.63019374   50.54492737  -35.49114415    -64.14551148  -32.88909438   23.28285577
    1   -3.88880165   -9.96552383    6.11932002    -29.22786779   43.21631960   12.53406741     17.88508130  -26.13323531   -7.52103847
    8    0.48203306   -3.90804358   -9.01067054     48.65062098   -0.97055919   50.71709313     -1.65288753    0.04537443   -1.49677349
    1    0.72641412   -3.21833830   -8.27969143    -14.96898061  -37.32028468  -40.81873865      7.65177168   18.13277768   20.33346038
    1    1.01761675   -4.73470947   -8.73074562    -28.91520670   40.92204050  -15.46712410     14.56175186  -20.62790462    8.31810577
    8    1.97041767   -4.75204872    5.49595232     -6.56375597   13.81925838   63.70964287     -0.15501359   -0.46775109   -2.68710722
    1    2.53100296   -4.79182002    6.36520421    -33.88445841    3.63277366  -49.57530636     20.67129813   -1.65741659   31.78976084
    1    1.08807980   -4.37531855    5.83020298     39.54228194  -16.04204750  -14.44259370    -18.76667805    7.96827454    8.27322040
    8    4.88023775    1.73622079    8.95328076    -70.95000558   -5.49683307  -17.96541963      1.83850593    0.19233642    0.54978299
    1    5.40472964    1.21034435    8.37757534     22.83205641  -21.81569417  -23.73409893     -8.66396584    8.11563333    8.68113916
    1    5.50697099    2.09025202    9.51265663     47.16421165   26.57491597   42.29744714    -21.00096432  -11.84277449  -18.54548471
    8    8.76364142    1.46730928   -4.05862241    103.54007363   20.40549795   38.33029675     -3.10790154   -0.51696104   -1.60919698
    1    8.45033048    1.59774275   -4.89788205    -29.03887804   12.11354179  -75.90166491     17.06890736   -6.18936945   44.14441328
    1    8.07104890    1.06012375   -3.65828153    -68.54268286  -38.79043957   39.12279966     30.14695321   18.26163956  -16.90917474
    8   -9.63414398    7.92906390    5.46328545      1.54610224  -14.46377981  -48.17976175      0.14304956   -0.22872646   -0.05309681
    1   -9.96738338    8.62715797    5.99330057    -13.98060426   30.80997171   26.66797931     -0.41317408    2.04427699    1.33652130
    1   -9.21348014    7.35427846    6.09183757     13.08714773  -16.86614941   22.13068329      0.64794017   -0.28540644    0.15596368
    8   -8.39156275   -2.62764694   -8.76663516    -43.16044011  -18.06583180   21.05638065      1.10893884    0.18652269   -0.47470351
    1   -7.69636290   -2.34380435   -9.31848816     38.15658819   15.60208463  -30.73533493    -16.47614028   -6.55742817   12.80777323
    1   -8.15778268   -2.21026658   -7.92933029      3.00162428    4.71829454   10.06301886     -0.98731874   -1.45456330   -3.03234187
    8   -7.72262391    4.01371658   -3.50302426      1.37976866   17.11485516   -0.48004449     -0.07834795    0.10348596   -0.28622520
    1   -8.24303307    4.21774997   -4.31362115      4.13640868   -1.67046147    5.62054021      1.36195533   -1.26930038    3.43726350
    1   -7.30268204    4.88514640   -3.28551295     -6.70055175  -15.29936997   -3.76435843      0.51165393    0.61370111    0.87957043
    8    6.19029761   -8.42265556   -4.27676706     47.34363696   -0.09104772  -48.42697209     -1.85637579    0.20375798    2.39337708
    1    5.50554399   -7.98974672   -3.83910456    -46.88405739   26.19082531   32.17830481     23.87964735  -11.61212291  -21.80411852
    1    6.32111388   -9.19328093   -3.75090694     -0.62229639  -24.49419188   20.45555307      0.85132115    9.21988530  -11.11179655
    8    3.51704483   -2.30960997   -8.75132507      1.02759869  -11.14474469  -36.84081853     -0.15027367    0.31495023    1.12927151
    1    2.63867186   -2.08564391   -8.45114777    -19.68271509    5.34138168    8.31197236     10.02610098   -2.75235918   -3.82853359
    1    4.03980956   -2.11559575   -7.98462859     17.62418977    6.66395471   27.67964221     -7.55862902   -3.12166373  -11.91338014
    8  -10.12975727   -3.86082656    5.92041238     -7.79574399   14.22208079  -22.81148421      0.42009471    0.78090655   -0.73462314
    1    9.66665312   -4.51436057    6.36649914    -10.94238419  -13.77491597   10.00867980     -9.24466052  -11.21257340    8.48589094
    1   -9.33521941   -3.84895891    6.45660449     18.07493142   -0.68806680   13.56511358      2.80580660    0.07521444    2.21561990
    8   -0.83336449   -1.13098160   -3.57662256      3.27684243   80.42117396   73.89823418     -0.09235310   -2.89042586   -3.04209182
    1   -0.66659206   -0.09409971   -3.70282726    -13.10186861  -83.32826037    9.51185568      7.49850606   48.50994063   -4.76260725
    1   -1.02335484   -1.19281204   -2.53376402     14.00155668    3.67054358  -83.28598228     -8.64756111   -2.54863400   53.79123635
    8    0.12219258   -6.66516450   -1.85115563    230.93061875 -127.63697305  -67.14510545     -9.51488051    4.32167231    3.19107236
    1   -0.38084814   -6.63869785   -2.52865893    -96.91667305   11.74524728 -108.82885553     60.23489934   -2.19552301   62.15816663
    1   -0.25596168   -6.31612081   -1.30552553   -134.66282384  117.95811275  170.80677623     90.56037110  -63.54996969 -109.71700596
    8    2.82023095    7.93248697   -0.47644930    170.47324059  172.58596650  -33.84429103     -5.51705234   -5.54532794    1.13169345
    1    2.07403114    7.81938018   -0.29893399   -207.70804554  -44.10875017   50.05854732     95.78543722   17.99497424  -17.75551369
    1    3.15442537    7.15643503   -0.54035491     45.01875146 -131.86388170   -8.32041019    -16.34324217   63.41614642    2.70312892
    8    0.44574545    5.49862730   -2.08255933     35.05536040   -5.81331351  -64.53653589     -1.38315727    0.34870053    1.85374437
    1   -0.18440749    5.07668026   -2.74872758     25.70647203   17.03136120   27.50825726    -10.48405522   -7.95022514  -11.26060259
    1    1.27829237    5.72490949   -2.67296985    -56.03526009  -16.44940250   41.22735111     30.30543429    7.40964849  -21.88087529
    8   -0.45401679   -7.73459396    5.05746640    130.00716895  -46.83014976   -3.00010415     -4.68802486    1.93693962    0.17855279
    1   -1.06390002   -7.95979864    4.45156232    -70.81414694  -21.59350946  -62.90337007     39.02378170   11.42639646   35.23558426
    1   -0.87862856   -7.19887061    5.60458996    -58.18074566   66.75219483   66.35265903     34.73597451  -39.99550891  -39.16316698
    8    6.60331456   -7.82753440    2.95664052   -283.83227961  -42.78726990  -72.35883656     11.20308645    1.68663360    2.75403476
    1    5.60247719   -7.83356808    3.62956003    197.71765146    8.41109434 -131.66212396   -121.77277575   -7.54887353   77.47739008
    1    6.15980253   -8.00512128    1.86004275     82.33964845   38.72875970  207.63687254    -51.11797648  -23.53343725 -123.18843753
    8    8.75318205    1.51113594    8.44270551     42.88878116  -52.45250245  -54.12291451     -1.59403746    2.27121326    1.96810296
    1    8.18272229    1.81401811    9.06737798    -52.83329037   28.62375180   59.54288777     34.62871119  -19.19738304  -38.77359122
    1    9.13107452    2.32315662    8.10977983     10.39081734   22.44710166   -8.89621583     -8.27326623  -17.76582411    6.78910711
    8    3.52684966    3.38976936   -4.32804826    329.64946448 -148.64300990   61.78869647    -11.79410671    5.58734757   -2.89186943
    1    4.52002736    3.53717331   -5.00200138   -202.57759677  -23.55467464  129.70295423    114.62921261   21.19344051  -86.30884590
    1    4.01643628    2.63267040   -3.45277113   -124.00434454  174.66827743 -190.73007220     70.49847131 -112.39294305  126.81073148
    8    6.49929886   -7.91304817   -8.77902155    117.24751306  259.08385367 -170.30340928     -3.29299445   -7.82146548    3.48418230
    1    6.70805816   -8.31314485   -8.20457301     33.19777974 -173.47221930  205.51353320    -19.40378329   83.51499801  -82.36731673
    1    5.81067787   -8.18091404   -9.11907009   -151.56741788  -90.79162834  -40.34674935     70.50839556   44.22415859   26.63382043
    8   -4.57170235    0.41554434    9.60840315   -120.72040289   69.95581960  116.94941781      4.80257327   -2.82333143   -4.67898345
    1   -4.15454993   -0.31589771    9.52901074     76.97358039 -127.63140293  -18.41143248    -51.50088910   83.13583698   10.90939574
    1   -4.33583814    0.85171674    8.89526938     36.55698212   55.13171334  -99.11902035    -24.39167924  -35.46447004   63.08268368
    8    4.94032914   -1.96088007   -6.50091067    -15.37108511   58.48525082  -22.02921558      0.52107109   -1.95520017    0.51192421
    1    4.96439557   -1.77946405   -5.56207761      0.55726240    2.90197352   24.29228699     -0.66888437   -1.10731949   -8.64320921
    1    5.16168116   -2.85707019   -6.52187184     14.56097941  -58.45635013   -0.61300194     -8.31546692   30.98953737    0.74684540
    8    5.74444283    8.78734761    2.32516055     17.24149614   16.52082161  303.54347503     -0.88325182   -0.25696074  -12.82662970
    1    5.05260520    8.35818250    3.22182198    133.33480266   85.75704713 -181.68751723    -97.09450023  -60.76794557  126.07716347
    1    6.55449946    9.39294814    2.94671924   -149.64543866 -109.68375269 -114.82050318    104.58985784   76.63120406   71.85832124
    8    0.43345659   -8.83861070   -6.66974836    -45.30380777   24.69020347   20.93173964      1.87827968   -1.36412807   -1.01725273
    1    1.35340713   -8.73177343   -6.54406668     45.38864304    5.29315033    5.06241356    -30.38165436   -4.25410324   -3.55228895
    1    0.40638568   -9.60288353   -7.21813204     -0.34239284  -30.95003556  -23.33730573      1.87463545   25.45527939   19.91178940
    8   -0.84267688    4.43680194   -4.35250344      8.64803235   48.88410333    7.30386809     -1.13211671   -1.25407706   -0.57927137
    1   -1.12253568    5.41568174   -4.35835054      9.25908516  -39.57202969   -0.30066542     -2.31012922    9.13905552    0.66239845
    1   -1.63899120    4.01176679   -4.68684201    -14.93271704   -7.36244325   -6.84571694     17.51354975    9.01000604    8.88596785
    8    4.68748333    2.58861445   -8.12277114      1.55720471    3.33822705    4.64516896     -0.07600281   -0.05765987   -0.10970591
    1    5.18187659    1.74952793   -8.09277282      2.45206309   -4.37549153   -0.83114799     -0.02128393    0.35297440    0.01148272
    1    3.76540603    2.29017198   -8.01983674     -4.78586918   -1.48116951   -0.62304994      1.94947576    0.78464918   -0.09629388
    8    2.78821830    5.76573866   -3.45734117     32.10776854 -114.76113947  -47.36286028     -1.51609487    4.61151361    2.18137945
    1    3.10014218    4.80977194   -3.89178974    -35.61139528   99.55913632   54.87464604     22.33727817  -69.12229426  -33.25141112
    1    3.09078577    6.38261064   -4.14068963      1.59109953   10.78099278   -4.02143833      0.84446607    2.31180466   -0.74810578
    8   -2.94134180   -3.13825568   -7.40013275   -163.38965300   12.22595927  -19.12093645      5.31430265    0.23076647    0.76981339
    1   -4.01843751   -3.38562877   -7.65803204    153.87273239   34.59280520   34.70237009    -79.15325406  -18.22261773  -17.17108186
    1   -3.03445201   -2.16601850   -7.08586357      5.81583612  -49.42435083  -15.98173520     -2.25322964   16.24484447    5.76308013
    8    9.72605677    1.13122258    4.73461536    202.44560864  168.11260582  -18.38814620     -7.41321258   -5.88528866    0.65917160
    1    8.95570039    1.14024444    4.77582705   -224.70370694   -7.80498498   12.98269404    130.37605795    2.99233652   -7.57097559
    1    9.92481975    0.33224096    4.76118676     30.16269900 -164.61159087    6.73618345    -16.71478661   89.58944744   -3.82160296
    8    7.25984246    8.87487683   -8.40825261     30.26690678  -53.00054513   -5.71414508     -0.23827559    1.04621207    0.99386595
    1    7.16664338    9.63716169   -7.86495074     -4.15185877   30.63174290   21.47512422      1.15282104  -16.95499502  -11.89663373
    1    7.88253751    8.28849677   -7.86303647    -24.07522381   20.83570588  -19.09192317      0.07756430    1.57945999   -1.07311197
    8   -2.87096584   -3.46928628    2.96739648    -62.59643583  -61.09539603  -62.96122294      2.11352019    2.02454511    2.15232032
    1   -3.21942391   -2.72084763    3.34640812    -27.29154021   61.20609435   31.44903498     14.98710829  -32.46159653  -17.20129152
    1   -2.03466425   -3.45960875    3.27379718     88.28048929    1.59438097   32.36059540    -48.37633736    0.11972509  -18.13974452
    8   -7.30539399   10.15020761   -8.77901245    -43.97730849 -117.14791559   99.85392773      1.31183468    4.33463345   -3.59658447
    1   -7.88571688   -9.71478636   -9.23305813    -70.52231412   62.30658497  -59.44280528     40.42881220  -36.26280973   33.21265952
    1   -6.55214786   -9.87785049   -9.03292351    116.83265016   51.87174396  -42.08503931    -62.94858254  -28.67314502   21.99251551
    8    8.44055009    4.08084227    1.48451122    -25.15520237   30.70582933 -153.12314649      0.30049986   -0.46303475    4.18688665
    1    8.17406785    4.42461746    2.21097253    -43.12145462   54.38377542  118.69615239     20.98911311  -25.76077151  -54.41480361
    1    8.95301634    3.42577926    1.74156078     65.89405467  -84.51254478   35.15473817    -26.15782964   34.30799003  -13.85475741
    8   -7.86057045   -3.79688867    7.33863185      1.74031990   -6.88550698   -4.50926733      0.04044049    0.28426535    0.14469573