 BEGIN_INFO
   #
   # This is a XCRYSDEN-Structure-File
   # aimed for Visualization of Fermi Surface
   #
   # Case: Tight-binding calculation
   #
   # Launch as: xcrysden --xsf HICOLM.XSF
   #
 END_INFO
 # estrutura final
CRYSTAL
PRIMVEC
      18.00000000       0.00000000       0.00000000
       0.00000000      18.00000000       0.00000000
       0.00000000       0.00000000      18.00000000
PRIMCOORD
  585    1
    8    5.69373006   -0.46929580    1.79159219      3.17759814    9.29738534   -2.15370436      0.00000000    0.00000000    0.00000000
    1    6.58633012   -0.60138983    2.11242266      4.57786661   -0.86852297    6.29225040      0.00000000    0.00000000    0.00000000
    1    5.15496587   -1.05982544    2.31896661     -3.12679280   -9.08700226    0.48604027      0.00000000    0.00000000    0.00000000
    8   -5.11580938   -8.68830270    6.58671104     -7.35912880   -3.61976803   12.64579220      0.00000000    0.00000000    0.00000000
    1   -4.38295911   -8.87763223    6.00002483      6.72386259    1.73761858   -4.08914990      0.00000000    0.00000000    0.00000000
    1   -5.83871832   -8.45059090    6.00532334      3.62582604    2.18746536   -2.89148508      0.00000000    0.00000000    0.00000000
    8    3.26993461   -8.86360151    7.57693536      2.45505020   -2.60767062   -2.19481139      0.00000000    0.00000000    0.00000000
    1    2.70832061    8.65538438    8.18548366      2.53125619    2.38030301   -1.63058473      0.00000000    0.00000000    0.00000000
    1    2.73737891   -8.75318556    6.78870402     -4.20006633    0.29607746   -0.00931200      0.00000000    0.00000000    0.00000000
    8    8.78317929   -5.35233814    0.57011558     -2.92679337   -3.53305889   11.24385697      0.00000000    0.00000000    0.00000000
    1    7.92910782   -4.96862150    0.36902017     -4.16801509    1.50885311    3.37798143      0.00000000    0.00000000    0.00000000
    1   -8.58279704   -4.67588107    0.33024952      6.74291800    1.76320805   -9.01828665      0.00000000    0.00000000    0.00000000
    8    2.48642989    6.56493471    6.03455939    -16.44697896   -3.82929132  -12.92940944      0.00000000    0.00000000    0.00000000
    1    2.15460579    5.81087519    5.54629420      5.14427101   -0.86139666    1.47639573      0.00000000    0.00000000    0.00000000
    1    2.61410803    6.24100570    6.92668280      6.65055055    8.64657453    9.39479735      0.00000000    0.00000000    0.00000000
    8   -3.48482603    1.35706901   -3.46648520     19.40856080   -5.53494129    8.40914112      0.00000000    0.00000000    0.00000000
    1   -3.45157516    2.27792178   -3.20563955     -4.91759189    3.95864258   -7.92545514      0.00000000    0.00000000    0.00000000
    1   -4.40487163    1.19649469   -3.67825838    -14.39098156    1.20568550   -5.85943646      0.00000000    0.00000000    0.00000000
    8   -2.65574380    7.36999121    7.32385288      1.55925239  -17.39195896   -5.27369118      0.00000000    0.00000000    0.00000000
    1   -2.40851461    8.00108020    8.00040319     -3.81943376    8.43567249    3.49571315      0.00000000    0.00000000    0.00000000
    1   -3.27830875    6.78280091    7.75366252     -4.98726911    7.85068211    1.50391341      0.00000000    0.00000000    0.00000000
    8   -4.39572271    0.44807555    8.72489679      8.02294584  -22.84216192    1.79428991      0.00000000    0.00000000    0.00000000
    1   -4.90189122    0.19493012    7.95235117     -3.55074665    6.24675430  -12.37147041      0.00000000    0.00000000    0.00000000
    1   -3.49830315    0.17797471    8.52792071     -4.62755124    9.84730021    4.68718925      0.00000000    0.00000000    0.00000000
    8    2.86101515    3.71774345   -0.14092038     16.67099276    9.72795961  -17.79017655      0.00000000    0.00000000    0.00000000
    1    2.22327498    3.00331866   -0.14015073    -12.07365356   -7.80604171   11.64875228      0.00000000    0.00000000    0.00000000
    1    3.71435489    3.28310758   -0.14526173      2.91237836   -2.27834935    5.50084062      0.00000000    0.00000000    0.00000000
    8   -4.93979650    2.75987586    1.36270707     23.56988786   14.82130559  -11.33680056      0.00000000    0.00000000    0.00000000
    1   -5.37609590    1.91573528    1.48180959    -13.74988732   -5.54739511    6.90651709      0.00000000    0.00000000    0.00000000
    1   -4.03427796    2.53783604    1.14395977     -6.64854961  -14.02614571    7.87569421      0.00000000    0.00000000    0.00000000
    8    3.16450647   -1.80342233    1.18468348     -7.51165777   -1.61558536    6.75119623      0.00000000    0.00000000    0.00000000
    1    3.86127740   -1.35325040    0.70617391      7.39780689   -3.89541632   -8.53253195      0.00000000    0.00000000    0.00000000
    1    2.35167766   -1.46125960    0.81138750      4.44791295   -1.46448821    1.10639318      0.00000000    0.00000000    0.00000000
    8   -6.90324073   -2.88180417    3.97702022     -5.00513751   -1.90621747    1.46509798      0.00000000    0.00000000    0.00000000
    1   -7.21630366   -3.74396751    3.70173515     -0.36894994   -0.51005159   -2.02282695      0.00000000    0.00000000    0.00000000
    1   -6.20849216   -3.06516399    4.61012329     10.41223168    0.55227930    0.01496321      0.00000000    0.00000000    0.00000000
    8    4.19615670    5.53480358    7.84498973     -4.14519928    0.30353054   11.37448066      0.00000000    0.00000000    0.00000000
    1    4.30466311    4.70810985    8.31607331    -11.23375650    6.49329468   -6.84480069      0.00000000    0.00000000    0.00000000
    1    3.76367293    5.29362967    7.02528928     12.71939960   -2.18001197  -10.41311571      0.00000000    0.00000000    0.00000000
    8   -8.14458498   -6.72267417    8.95740550     -3.88892739   -5.55764431    0.59476320      0.00000000    0.00000000    0.00000000
    1   -8.07063557   -6.01301166   -8.40382498      5.16318439   -2.34721721    5.40684815      0.00000000    0.00000000    0.00000000
    1    8.91842924   -6.78536742    8.76967404     -1.23644720    1.42495176   -0.02356769      0.00000000    0.00000000    0.00000000
    8    2.83772520   -5.61909351   -7.22846250      4.34848930  -17.71782773   13.44853376      0.00000000    0.00000000    0.00000000
    1    3.44790823   -5.03740699   -7.68281188      2.61709844    9.86490109   -6.49745655      0.00000000    0.00000000    0.00000000
    1    3.34963099   -6.00006554   -6.51436960     -5.69291489    7.43510842   -7.83749479      0.00000000    0.00000000    0.00000000
    8    2.04991158    3.28778403    7.99023570     36.83534752    4.65490537    5.64507400      0.00000000    0.00000000    0.00000000
    1    1.51354332    2.49939969    7.90149375    -14.42630777   -7.42701895  -10.45208814      0.00000000    0.00000000    0.00000000
    1    1.41960480    4.00626497    8.05035554    -19.19189771    1.22584776    3.04471906      0.00000000    0.00000000    0.00000000
    8   -8.40996922    3.52286642    1.24825033     13.52196546  -11.83679509   -9.61012942      0.00000000    0.00000000    0.00000000
    1   -8.68548544    3.41122883    0.33789668     -7.14868842    1.61770530    5.21270800      0.00000000    0.00000000    0.00000000
    1    8.81405213    3.85754101    1.69876774     -4.03177661    8.47960570    1.73647667      0.00000000    0.00000000    0.00000000
    8   -5.42497813    1.68574060   -1.14985451     11.11428292   10.74702219   15.36062956      0.00000000    0.00000000    0.00000000
    1   -4.78233448    1.58530366   -0.44697653     -7.02131190   -3.08415453   -8.44847660      0.00000000    0.00000000    0.00000000
    1   -5.61059523    0.79226336   -1.44030348      0.44655482   -9.49730615  -18.48244655      0.00000000    0.00000000    0.00000000
    8    8.48123235   -1.81273568   -7.73478924     21.29385590  -14.69317779    1.25883390      0.00000000    0.00000000    0.00000000
    1    8.11427921   -0.93440799   -7.62990000    -15.86482823   12.42236584    8.12852368      0.00000000    0.00000000    0.00000000
    1   -8.74067014   -1.68872439   -8.27912495     -3.28434590   -0.12423237    2.68929047      0.00000000    0.00000000    0.00000000
    8    0.76936944    4.32639780    5.22399305     26.44466448   -5.04444002  -10.97272948      0.00000000    0.00000000    0.00000000
    1    0.72219959    5.17419762    4.78113149    -14.08293020   12.04979081    3.15831879      0.00000000    0.00000000    0.00000000
    1    0.72626007    4.53595372    6.15745103    -13.01385101   -2.95994030    6.74633700      0.00000000    0.00000000    0.00000000
    8    1.87959876    7.57762148   -1.49679936    -23.89539366    9.25293262   15.21192732      0.00000000    0.00000000    0.00000000
    1    2.51757467    8.28904992   -1.55982495     12.88088182    3.33420870   -2.33818734      0.00000000    0.00000000    0.00000000
    1    1.05610931    7.96069219   -1.80050623      3.74995123  -10.72924259   -6.45884941      0.00000000    0.00000000    0.00000000
    8   -2.99621682   -8.11303410   -0.81804793      7.86156590    1.63795831    4.68506212      0.00000000    0.00000000    0.00000000
    1   -3.25417723   -7.47965702   -1.48842529    -14.45157358    4.72108184   -5.25479810      0.00000000    0.00000000    0.00000000
    1   -3.47568521   -8.91185148   -1.03967091     -4.15280913   -4.02151038   -4.52963185      0.00000000    0.00000000    0.00000000
    8    5.86160585   -8.30253743   -8.11257948     13.95988982   -6.35086906   -2.33115654      0.00000000    0.00000000    0.00000000
    1    6.61276820   -8.26141688   -7.51997495     -4.65823611    6.00532241    4.38687160      0.00000000    0.00000000    0.00000000
    1    5.98397341    8.88570063   -8.60571702     -6.61136052   -3.16708195   -2.87694270      0.00000000    0.00000000    0.00000000
    8   -6.90546243   -0.18659519    2.99294788     19.84900957   -7.32073222  -16.75959904      0.00000000    0.00000000    0.00000000
    1   -7.36275642   -0.88819505    3.45744302     -2.16603298   -1.24733785    2.92726599      0.00000000    0.00000000    0.00000000
    1   -6.14807515   -0.61320460    2.59109614     -7.87092638    1.00598193    7.57645818      0.00000000    0.00000000    0.00000000
    8   -7.78401223   -3.44631315   -0.73251746     -6.34289157   -3.23659056   17.04230507      0.00000000    0.00000000    0.00000000
    1   -8.74127534   -3.44881697   -0.76003036     -8.07599482    5.60781750   -8.19512579      0.00000000    0.00000000    0.00000000
    1   -7.55198235   -2.58259222   -0.39007884      8.23679537    1.20941458  -11.11094287      0.00000000    0.00000000    0.00000000
    8    1.77889970   -0.14022246    6.27527700      5.58550169    0.39758078  -17.91969082      0.00000000    0.00000000    0.00000000
    1    2.14978046   -0.07852573    5.39450638      0.22519927    8.92904659   11.41059151      0.00000000    0.00000000    0.00000000
    1    0.87985242    0.17686272    6.18424479     -3.27414209    6.10510339    6.69766839      0.00000000    0.00000000    0.00000000
    8    6.70026248   -3.10284008    3.76222375      1.61985617   17.13017520  -13.21819855      0.00000000    0.00000000    0.00000000
    1    6.69266345   -4.04755836    3.91895768     -0.95459342  -15.59501075    1.57016398      0.00000000    0.00000000    0.00000000
    1    7.21808524   -2.74028111    4.48161688      1.44828208   -0.83740692    7.60015705      0.00000000    0.00000000    0.00000000
    8    7.65521185   -2.91116737   -2.50869964     14.01756071    8.55176138   -2.52685154      0.00000000    0.00000000    0.00000000
    1    7.10568197   -3.48195488   -3.04659779    -10.10944834   -2.76532432    0.04746727      0.00000000    0.00000000    0.00000000
    1    8.50093702   -2.89290992   -2.95762226      3.70141457   -3.99718160    2.60701410      0.00000000    0.00000000    0.00000000
    8   -4.07135576   -3.30056848    2.56084548    -16.66956293   -6.79643953    5.73063675      0.00000000    0.00000000    0.00000000
    1   -4.91277441   -3.72652553    2.39443892      5.80447096    0.35256136   -2.70861149      0.00000000    0.00000000    0.00000000
    1   -4.28277167   -2.37136453    2.65570977      7.52300596    0.54118235   -3.18594306      0.00000000    0.00000000    0.00000000
    8    5.24626653    7.64383650    4.66865529     -7.26405285   -3.51584556   -1.75739007      0.00000000    0.00000000    0.00000000
    1    4.60838356    7.13411708    4.16824813      6.24842379    3.23650226    0.65399281      0.00000000    0.00000000    0.00000000
    1    5.03053808    7.47196440    5.58573605     -0.18670186    2.70119585    2.26250670      0.00000000    0.00000000    0.00000000
    8    7.58758853    3.53086694   -7.63085522      8.41637662   -4.61949626   19.74523609      0.00000000    0.00000000    0.00000000
    1    7.77651606    2.85824568   -8.28583837      0.34703683    1.00311082   -0.51933476      0.00000000    0.00000000    0.00000000
    1    6.98144418    3.11219979   -7.01895430     -3.34534995    1.42523122   -9.80174368      0.00000000    0.00000000    0.00000000
    8   -0.76197054   -8.73158611   -5.79793188     -6.63876563    7.66588241   -9.04252820      0.00000000    0.00000000    0.00000000
    1   -0.06126764    8.72386475   -5.43793527      0.73931153  -10.15944300    2.84366854      0.00000000    0.00000000    0.00000000
    1   -1.56974305    8.80295945   -5.57890761     -0.62556166   -6.41553611    2.58007628      0.00000000    0.00000000    0.00000000
    8   -5.63050503   -7.59857850    0.15234708    -11.92967227  -21.02362801   31.74327964      0.00000000    0.00000000    0.00000000
    1   -5.26737750   -8.48470362    0.15839305      0.73066838    3.18643048  -14.52547345      0.00000000    0.00000000    0.00000000
    1   -4.86617166   -7.02170866    0.14087563     11.42917029   11.32432386  -11.92999566      0.00000000    0.00000000    0.00000000
    8   -6.21424051    8.19140291   -4.01513695     -7.22659097  -14.67938571   -9.09073609      0.00000000    0.00000000    0.00000000
    1   -7.12163091    8.40510313   -3.79584090      2.24220987   12.34176339    8.85347214      0.00000000    0.00000000    0.00000000
    1   -6.27854401    7.48464956   -4.65816157      8.56441284    4.62302027   -5.16962423      0.00000000    0.00000000    0.00000000
    8    0.92715316   -6.49748176    3.69441173      6.30916230   -1.75745954    1.26004810      0.00000000    0.00000000    0.00000000
    1    0.45821053   -5.81901235    4.18112310      2.91732266   10.90708441    2.93736544      0.00000000    0.00000000    0.00000000
    1    0.45619625   -7.30799369    3.89033495      2.68241674   -5.67256839    4.68027734      0.00000000    0.00000000    0.00000000
    8    8.98187290   -5.74124057   -3.72244469    -14.27586102   30.42791046  -15.82992421      0.00000000    0.00000000    0.00000000
    1    8.74741021   -4.81999986   -3.60643301      6.60289078  -13.08159545    6.17745470      0.00000000    0.00000000    0.00000000
    1    8.31816313   -6.22576574   -3.23067177      9.87488234  -10.42368405    4.61407269      0.00000000    0.00000000    0.00000000
    8    0.97905203   -6.45066559   -3.99200658     -1.56135088   -6.60840340   21.06784994      0.00000000    0.00000000    0.00000000
    1    1.70717565   -6.64444230   -3.40090382      5.86246276   -0.71085787   -7.88647032      0.00000000    0.00000000    0.00000000
    1    0.32817591   -7.12857508   -3.80784659      1.98815634    6.89604797  -13.00583229      0.00000000    0.00000000    0.00000000
    8   -0.87186181   -3.42653897   -5.55644757     -8.73320156  -13.85692453   -6.03552835      0.00000000    0.00000000    0.00000000
    1   -1.12676033   -4.26085311   -5.16140003      5.43612205    5.87448843   -3.66862833      0.00000000    0.00000000    0.00000000
    1   -1.69933628   -2.99992977   -5.78096146      0.05172047   11.81570971   -2.00544507      0.00000000    0.00000000    0.00000000
    8    6.16233167   -0.89952222    8.20556274     16.93213222   21.84170303    4.32419764      0.00000000    0.00000000    0.00000000
    1    6.39193436   -0.11580690    7.70537397    -10.31993805   -9.20708533   -1.76236648      0.00000000    0.00000000    0.00000000
    1    6.75183909   -1.57946202    7.87802835     -8.39784669  -13.22001504   -1.02884122      0.00000000    0.00000000    0.00000000
    8    4.92323129   -7.36791909   -2.53678203    -13.95865822   -1.71027126   -9.14731762      0.00000000    0.00000000    0.00000000
    1    4.95019841   -6.50084917   -2.94246469      4.67477801    1.45192568    4.74676343      0.00000000    0.00000000    0.00000000
    1    5.68275483   -7.82851804   -2.89467657      6.35664594   -1.39287817    2.59143839      0.00000000    0.00000000    0.00000000
    8    0.31064644   -3.87246982    3.67423824    -13.31993666   10.99378573   25.14619866      0.00000000    0.00000000    0.00000000
    1    0.15065689   -3.45794887    2.82589183      6.63853869   -5.60057786  -15.32448285      0.00000000    0.00000000    0.00000000
    1    0.13939424   -3.18457852    4.31812810      7.59189261   -2.31722160   -4.80968987      0.00000000    0.00000000    0.00000000
    8    1.39307529   -5.82103106    6.84950094    -12.99795238    6.07145278   -5.94384896      0.00000000    0.00000000    0.00000000
    1    1.76831614   -5.55609480    7.68980979      8.26947282   -6.06073289   11.32097574      0.00000000    0.00000000    0.00000000
    1    0.79461240   -5.11118031    6.61483102      8.30068402   -4.59251088   -2.83656095      0.00000000    0.00000000    0.00000000
    8   -7.83741438    5.07164141    4.94098466     -0.61351625   -4.60336404   -1.73310545      0.00000000    0.00000000    0.00000000
    1   -8.28465096    4.28152944    4.63632352      1.56944350    3.48862894   -0.29043905      0.00000000    0.00000000    0.00000000
    1   -7.98754931    5.08775406    5.88666737     -4.91871212   -0.63305534    0.74945253      0.00000000    0.00000000    0.00000000
    8    7.47720677   -4.15309419    8.41541435      7.26811357   -2.69812859   -2.25192624      0.00000000    0.00000000    0.00000000
    1    8.31252111   -3.93939411    7.99864327     -5.69470895   -2.22832090   -0.25114302      0.00000000    0.00000000    0.00000000
    1    7.71204111   -4.69655592   -8.83184527     -5.61789442    1.45079859    2.17722140      0.00000000    0.00000000    0.00000000
    8    1.03106226    2.82486198   -5.46244888     -0.16713315    5.70454756   -4.16450098      0.00000000    0.00000000    0.00000000
    1    1.38149801    2.83111862   -6.35366800     -0.81603255   -2.89438908    5.55858295      0.00000000    0.00000000    0.00000000
    1    1.24923482    1.95733241   -5.12052918      3.54139786   -2.04010485   -1.87150453      0.00000000    0.00000000    0.00000000
    8   -6.33172731    2.06506009    4.65491544     14.42055285   -1.91001476    9.35963112      0.00000000    0.00000000    0.00000000
    1   -6.81798000    2.52930380    5.33693596     -5.26369776    1.74530959   -5.78301850      0.00000000    0.00000000    0.00000000
    1   -6.83414500    2.21322264    3.85320464    -10.26148760   -1.59344287   -1.19086323      0.00000000    0.00000000    0.00000000
    8    1.44117971   -8.14495796   -7.26777732     -2.10442314  -21.00047722   -5.64298247      0.00000000    0.00000000    0.00000000
    1    1.46416696   -8.21275175   -8.22275978     11.00174873    8.41638151   -1.61822423      0.00000000    0.00000000    0.00000000
    1    0.54736488   -8.39053270   -7.02714482     -4.33183615    5.55954799   10.27038287      0.00000000    0.00000000    0.00000000
    8    1.20090951    2.83935579   -2.43019987     -5.69095929   -5.94125218   -6.16129001      0.00000000    0.00000000    0.00000000
    1    2.02074974    2.87211606   -1.93633282      2.50912354    4.63541300    1.65504918      0.00000000    0.00000000    0.00000000
    1    1.02606449    1.90559897   -2.55120941      4.17145703   -0.13063446   -0.14001905      0.00000000    0.00000000    0.00000000
    8    6.65134752    6.00702253   -2.98064984     24.60069340   -6.89292083   -0.35139982      0.00000000    0.00000000    0.00000000
    1    7.53023554    5.62859041   -2.94242853     -5.15784848    7.81346670    2.90888936      0.00000000    0.00000000    0.00000000
    1    6.75622260    6.90112280   -2.65399738    -10.14754526   -0.92073499   -2.59516103      0.00000000    0.00000000    0.00000000
    8   -7.19607202   -2.78214844   -4.36955598    -16.27539292   -2.25014585  -10.61447077      0.00000000    0.00000000    0.00000000
    1   -7.99135950   -2.57006045   -4.85909903      7.15085893   -3.47813108    0.62256169      0.00000000    0.00000000    0.00000000
    1   -6.57553418   -2.09026464   -4.60052240     10.83374609    5.79479421    5.83475642      0.00000000    0.00000000    0.00000000
    8   -5.25474541   -6.83467770   -7.09603200     -5.82010872   -8.36062739  -14.72983353      0.00000000    0.00000000    0.00000000
    1   -5.34915107   -7.39253901   -6.32337799     -0.68117083    6.32454219    5.52344252      0.00000000    0.00000000    0.00000000
    1   -4.56274823   -6.21399217   -6.86580325      1.81313735    3.80621044    6.40803976      0.00000000    0.00000000    0.00000000
    8   -4.21122709    0.88436168   -6.09474107    -18.62808521  -22.45882756  -17.37791981      0.00000000    0.00000000    0.00000000
    1   -3.27028976    0.72363790   -6.01779489      8.30813010   15.64448665    5.61570935      0.00000000    0.00000000    0.00000000
    1   -4.29471580    1.83807213   -6.11886356     14.66556980   14.59274735   -0.57887976      0.00000000    0.00000000    0.00000000
    8    6.70627017    0.16806664    4.42270134     -5.13667165   -6.24046105   19.41816517      0.00000000    0.00000000    0.00000000
    1    6.39270138    0.62689871    3.64278875      2.12519529    2.26464986   -8.68103751      0.00000000    0.00000000    0.00000000
    1    6.01139303    0.28592108    5.07106235     -7.16253732   -3.52577646   -0.87932064      0.00000000    0.00000000    0.00000000
    8    5.68282142   -5.54256063    2.06830001     16.02909092   18.47935380   -3.06888554      0.00000000    0.00000000    0.00000000
    1    4.76478684   -5.81306956    2.10226071    -11.07530063   -3.13875492   -6.25156209      0.00000000    0.00000000    0.00000000
    1    5.65379007   -4.58683647    2.01477988     -9.29520876   -0.98344141    6.29485848      0.00000000    0.00000000    0.00000000
    8    8.55824561    1.09780132    2.43080160    -20.77530430  -11.23784423    4.67801836      0.00000000    0.00000000    0.00000000
    1    8.08791045    1.92422500    2.31711505      2.21494260   10.41369087   -0.78951585      0.00000000    0.00000000    0.00000000
    1    8.64506651    0.74266822    1.54566968     14.08220882    3.89054354   -2.48554383      0.00000000    0.00000000    0.00000000
    8   -2.90377175   -5.36700460   -6.06477960    -12.44650869    0.55921386   10.19865676      0.00000000    0.00000000    0.00000000
    1   -2.60819048   -6.16417942   -5.62403034      4.95168858   -3.02338162   -4.13621143      0.00000000    0.00000000    0.00000000
    1   -2.46719441   -5.38314595   -6.91698590      7.40093243    0.68001731   -7.73658599      0.00000000    0.00000000    0.00000000
    8   -2.27850776    3.25320009    6.20303219     14.50442048   -1.31058598   13.57779405      0.00000000    0.00000000    0.00000000
    1   -2.54698852    4.17100215    6.25473667     -0.30264115   -0.60405096   -7.82714195      0.00000000    0.00000000    0.00000000
    1   -2.86994378    2.79201434    6.79853789    -10.81495505   -0.64072034   -3.43240794      0.00000000    0.00000000    0.00000000
    8    0.57781876    2.53775659    3.07662041     -8.74833855    4.68903314   -6.74103069      0.00000000    0.00000000    0.00000000
    1    1.24351251    2.70985457    3.74321625      0.75311222    6.05532550    7.54678230      0.00000000    0.00000000    0.00000000
    1    0.34880865    3.40132960    2.73178433     10.29316756    4.08784062   -2.40937379      0.00000000    0.00000000    0.00000000
    8   -7.91806011    4.33092015   -7.31923726     12.87248733   18.16795387   26.58782439      0.00000000    0.00000000    0.00000000
    1   -7.17285540    4.32990205   -6.71775176      5.80998092   -9.74153713  -10.34173543      0.00000000    0.00000000    0.00000000
    1   -7.52632124    4.33166517   -8.19311140      7.21657137   -1.31585656   -8.29359353      0.00000000    0.00000000    0.00000000
    8   -8.85461685    0.97558304    5.32814774      0.87304521    0.39949632   34.81088889      0.00000000    0.00000000    0.00000000
    1    8.37408227    0.48001208    5.05134406    -10.34278112   -4.53310697  -19.82257758      0.00000000    0.00000000    0.00000000
    1   -8.46823033    0.45294188    6.03147382      4.77038076    5.97654952  -16.01275743      0.00000000    0.00000000    0.00000000
    8   -2.40186079    4.38603688    1.12556797     15.09868713   -9.81422298  -21.79861800      0.00000000    0.00000000    0.00000000
    1   -2.70362292    4.03347862    0.28785789     -7.09847885    8.89614437    0.77271261      0.00000000    0.00000000    0.00000000
    1   -3.18788741    4.42512832    1.67123263    -12.17362135    5.36324103   14.51090069      0.00000000    0.00000000    0.00000000
    8   -0.21199082   -4.66588276   -1.90426353      4.65935494  -14.86685553   12.11609963      0.00000000    0.00000000    0.00000000
    1    0.00365544   -4.95244959   -1.01629279    -12.18451572    3.06639955    4.24517114      0.00000000    0.00000000    0.00000000
    1    0.63526336   -4.53898700   -2.33225152      1.01255227   17.90786934  -14.70307700      0.00000000    0.00000000    0.00000000
    8   -3.93512300    3.20343267    3.91783481     13.90406120    8.22821686  -14.61001381      0.00000000    0.00000000    0.00000000
    1   -4.55211490    2.93370971    3.23688957    -14.78997482   -2.08670088    5.84998129      0.00000000    0.00000000    0.00000000
    1   -3.31631327    2.47597219    3.98848651     -4.94080707   -0.34604566   13.82118425      0.00000000    0.00000000    0.00000000
    8   -0.91398708    6.63535524    5.39497252     25.88385671   -6.59095677   -4.53635477      0.00000000    0.00000000    0.00000000
    1   -0.58006699    6.43972701    6.27095360    -13.01430172    5.19917486    6.16441658      0.00000000    0.00000000    0.00000000
    1   -1.82607162    6.89243119    5.53328251     -8.71749150    4.40563298    9.79911959      0.00000000    0.00000000    0.00000000
    8   -4.08591927   -2.81497555    5.46604104    -14.39129029   23.17968099   -3.19233871      0.00000000    0.00000000    0.00000000
    1   -3.95944875   -3.68668294    5.84186990      6.22845389  -11.41933837    7.65241681      0.00000000    0.00000000    0.00000000
    1   -3.22602839   -2.39735933    5.52348888     -0.41997620  -11.72755657   -3.70179817      0.00000000    0.00000000    0.00000000
    8    1.67368796   -2.66774440    7.52249046     -7.22833161  -17.66981824  -12.27411362      0.00000000    0.00000000    0.00000000
    1    1.93532150   -3.58544733    7.60302070      6.21978446    1.48776467    4.26349213      0.00000000    0.00000000    0.00000000
    1    0.71744563   -2.68129387    7.57281865      3.90272303   12.61910488    7.57453995      0.00000000    0.00000000    0.00000000
    8   -5.03265244    5.64921575    5.90265853     10.76090376    8.08847783   20.89252528      0.00000000    0.00000000    0.00000000
    1   -4.26619959    6.08843544    5.53285863     -1.19226198   -3.09034049   -8.69133337      0.00000000    0.00000000    0.00000000
    1   -4.78177796    4.72671128    5.95890263     -4.38362165   -6.09474106  -14.76011114      0.00000000    0.00000000    0.00000000
    8    2.14309149   -7.67613579   -0.96949882    -10.34734280   -8.64677648  -19.72847696      0.00000000    0.00000000    0.00000000
    1    1.23687513   -7.36656788   -0.96204755     -3.78574985    8.42440889   13.24317349      0.00000000    0.00000000    0.00000000
    1    2.67096737   -6.88336519   -1.06938737     16.74278946   -1.71599595    4.47001824      0.00000000    0.00000000    0.00000000
    8   -2.09557766   -4.89051597    0.62354978     18.87322574    7.39937291   -6.38090260      0.00000000    0.00000000    0.00000000
    1   -2.54158853   -4.04317618    0.63788422     -8.39184943   -3.44400480    5.50820611      0.00000000    0.00000000    0.00000000
    1   -2.80119468   -5.53718498    0.59130522     -8.59053397   -1.60907650   -0.14345873      0.00000000    0.00000000    0.00000000
    8   -0.84641523    5.09783059   -2.04317589    -13.20131953   13.60982903   10.64275112      0.00000000    0.00000000    0.00000000
    1   -0.51344379    4.98782922   -1.15202741     10.88761552   -2.28796108   -3.03151977      0.00000000    0.00000000    0.00000000
    1   -1.79426583    4.98557115   -1.96511846      1.22734753   -3.52981481   -6.70572179      0.00000000    0.00000000    0.00000000
    8    1.33624616   -3.43830202   -3.79590288    -10.45421708  -26.59804163   28.48164432      0.00000000    0.00000000    0.00000000
    1    1.40022538   -4.38222719   -3.94432062      3.00547723    3.61154246  -22.49660779      0.00000000    0.00000000    0.00000000
    1    2.23261547   -3.15983824   -3.60591370      5.48197188   16.98764714   -7.01210990      0.00000000    0.00000000    0.00000000
    8    4.02706606    8.68435135    1.80813615     -5.71611427   -4.66011746   -2.19322304      0.00000000    0.00000000    0.00000000
    1    3.13270703    8.88435051    2.08605369     -0.97564219    7.07111447   -1.64185744      0.00000000    0.00000000    0.00000000
    1    3.92914270    8.00264142    1.14270510      0.36188569    0.47847063    3.46764285      0.00000000    0.00000000    0.00000000
    8    0.31499823   -1.82728202   -1.24367509      3.13079305   10.06967235   21.17191381      0.00000000    0.00000000    0.00000000