 BEGIN_INFO
   #
   # This is a XCRYSDEN-Structure-File
   #
   # aimed for Visualization of geometry
   #
   # Launch as: xcrysden --xsf HICOLM.XSF
   #
   #
 END_INFO
 # estrutura final
CRYSTAL
PRIMVEC
      20.50485128       0.00000000       0.00000000
       0.00000000      20.50485128       0.00000000
       0.00000000       0.00000000      20.50485128
PRIMCOORD
  927    1
    8    4.43383837    3.23259616    1.99233951    -11.83049049   -3.75041032  -28.13663093     -0.01996335    2.36211327    1.53344192
    1    4.91535453    3.12635580    2.79839089     18.34327375  -10.42681706   28.51477480     -6.02732334    2.64299083   -9.15431231
    1    4.22148444    4.17353997    2.05042249     -6.08317949   14.01833415   -4.10841170      6.25383354  -24.83734552   -0.93936158
    8    9.17608826    7.33595406    0.76265028     14.88414810    6.36905224   -8.11907134      0.75466016   -1.15884896   -0.27209184
    1    8.41656611    6.82893136    1.05870218     -9.65839529   -8.78203770    5.50583676     28.76095515   22.13474990  -10.01328008
    1    9.93855807    6.85690683    1.16365649     -4.55679229    1.68260457   -1.29635441    -39.72200889   29.94834077  -19.48751319
    8    9.68284986    9.99394500    6.99541294    161.85478428 -300.65010974   67.18442911      0.31248172    1.25691075    2.01110836
    1    9.72416303  -10.05452359    6.45352716     13.25888594  190.21262155 -219.19542554    -10.48097998   -3.00644451   -9.97038057
    1    9.17001704  -10.21251385    7.44353538   -176.86089782  108.43999317  147.74111327     -4.06007577   -1.73410981   -3.88833170
    8   -1.19600683    6.62061344   -9.20032176     73.02586033  -37.31883974   56.10582317      1.75104978   -0.85518876    2.81383574
    1   -1.80395574    6.80423841   -8.44849343      3.51225260   -1.31765249   -7.02084006     -3.60402530   -0.41831775   -5.83607934
    1   -0.34770509    6.20404385   -8.69288449    -75.11763009   35.77540347  -47.29509874    -31.45310110   13.21446544  -22.01471773
    8   -9.04314378   -8.85840342   10.24125880     28.58530669 -109.62795768   53.48994831     -3.78117796    7.58713087   -2.21002177
    1   -8.61911380   -8.34868352    9.65568781     41.63382781   64.24546366  -65.51515929    -17.77399096   -7.32405214   17.64830783
    1   -9.81502124   -8.43088454  -10.09474080    -72.19125527   47.33982500   11.86624875     11.49749351    1.49362843   -6.91101650
    8    4.80296149   -1.39068868    7.17487201    113.78771694   13.30314644  -36.78235473      3.60828798    0.41251190   -2.05511007
    1    5.53851293   -0.60586441    7.24090541    -69.98854211  -71.26555184   -4.33350413    -48.75804907  -49.12552525   -0.92797068
    1    5.33406801   -2.12651495    6.63831277    -41.61409201   56.10473361   43.25769041    -25.93825684   33.40653928   25.88740259
    8    3.09319615    9.96989864    7.04013212    306.92466551 -213.35812734  -38.22162983      5.24419763   -6.01860151   -2.40412043
    1    2.51484210   10.10196995    6.69524409   -275.21302123   79.88400448 -138.24730178    -72.88714895   30.53696388  -39.60833655
    1    3.09853034  -10.10119123    7.67579855    -23.95727216  135.40692084  179.14334167     -7.93578121   44.59960010   57.53391281
    8    3.59759922    7.54327586   -5.49905904     20.53448415   11.52153780  -23.91187236      1.86932804   -1.16770848   -2.48798885
    1    3.77808805    8.47060161   -5.18355895     -2.16598800  -16.55458740   -5.81419480      5.83205363    8.96461948    8.48191823
    1    4.24898428    7.44243389   -6.27027913    -22.39192749    3.57768730   25.65821582    -19.10026315    4.67066525   18.72106287
    8   -2.59015758   -6.20244033    9.33150676    -17.84123754   20.91965585   -7.42854106      1.39114741    2.57703067   -0.49887498
    1   -2.58696403   -5.30779117    9.74731265     -4.45233844   -5.39387432   -4.49321145     -8.21980671  -54.99538423  -28.78306398
    1   -1.81183439   -6.57806035    9.73347934     21.70508469  -15.51197777    9.63475563    -41.73122784   13.80416000  -20.79569454
    8   -2.27874917    1.64490506   -7.09423977     91.16521541 -110.60780798   35.06479708      1.16973635   -1.85725742   -1.84197362
    1   -2.52040006    2.25767715   -6.49699294    -28.47902582   69.58434257   59.96221780     -9.93891852   14.98069020    8.25448272
    1   -2.69295377    1.88628589   -7.82783379    -54.15496584   36.75745410  -91.28482193     -6.00426887    8.17783157    1.33110396
    8    1.47488588    5.19532324    4.20298982      3.06759788  -21.44166501   30.56811333      0.25873610   -0.64579692    2.25623381
    1    1.62517793    5.86141242    3.54076528      1.98328297   18.54501214  -25.17016604      3.77625939   13.77414700  -19.93220516
    1    0.93622082    4.54821881    3.72713484     -3.48752838   -1.63311114   -7.33467753     -6.99979672   -6.09697226   -7.39549065
    8    7.22473477   -6.01452401   -4.99346977    -46.91154594   35.71450046   31.22381390      1.38088726   -0.40266203   -1.20004958
    1    8.00106089   -6.01593933   -5.48797525     48.42998233  -10.41912773  -30.52673762    -14.84562324    1.77210540    9.76069434
    1    7.03881769   -6.92925070   -4.80378124      2.17562672  -27.42994361   -0.16589894     -1.50903079    2.55208222    1.90982902
    8   -8.84072316    8.57194875    3.21237512     87.80357185  129.16255620 -160.56238092     -1.23855550   -6.93382635    3.14434836
    1   -8.90934050    7.82481162    2.71157472     -7.43446377  -68.28482764  -41.15175428     -0.89742066   43.04176360   35.05833523
    1   -9.10704378    8.35111378    3.90371731    -76.72479725  -67.99351777  195.88849660     13.13636286    7.95153746  -66.47909088
    8   -2.15359474   -8.42338744    3.04901492    133.12216278    7.27020310   90.51521991      0.61824634   -0.59106110    0.38514678
    1   -2.65725145   -8.93478014    2.62433073    -89.45230657  -99.68987962  -77.47712073    -12.46796090   -7.09724954   -8.68983853
    1   -2.56306922   -7.65537976    2.92509970    -43.25069285   96.56676348  -11.19772468    -13.22417665   25.77160419   -5.97073082
    8   -1.47776871    4.26294709    6.61622911     61.97926823   -8.37852038   36.75830015     -0.30550677    1.02734146    1.09007958
    1   -1.22528402    4.74170300    7.49996194    -16.59582423  -27.51173381  -51.07275639      1.06281284    5.97923792   12.60453768
    1   -0.64452894    3.67978127    6.44711835    -47.62360998   31.18065763    8.72432138     17.80655365  -11.93485303   -3.36504828
    8    2.78093949    1.08508869    1.69917560    -16.75787955  -20.93965738    4.08660283     -0.10842605   -0.38691472    2.25314020
    1    3.33947260    1.85738813    1.76520667     15.71711076   19.62181850   -0.42563957      2.96178409    5.88833350    1.96917349
    1    2.71605829    0.93763709    0.73616549      0.74936444    0.39653608   -3.05214050     -2.39814426   -4.84845167  -31.81953780
    8    2.13482117    1.85506486   -7.89576633      6.85869793    3.06634515   -2.26008055      1.36299235    1.14566743   -0.86551885
    1    1.54589678    1.18456515   -7.54166584     -8.32979089  -15.55891455    1.98784110    -28.58114946  -31.96282168   18.65117824
    1    1.86784516    2.60344482   -7.35181608     -0.30271743   13.66205011    4.96881766    -11.41457199   20.07943391   16.10359241
    8    6.06159796    0.24075030   -7.66472424     18.34963354  -47.16473139  -19.29436284     -0.99551864   -1.44965783    0.69145941
    1    6.64333175   -0.35899790   -8.26236499    -27.91249053   30.06379183   29.60192267      1.41247040   -8.01274989   -9.22681012
    1    5.53774990   -0.45022359   -7.16734893     12.19378579   17.16252754  -11.59954798      0.82094049    3.43429193   -6.87111676
    8   -0.28831102   -7.06807058  -10.05827349    -66.55783515  -18.20306670  -25.01164227      2.80052047    0.69107979    0.49305833
    1    0.50796478   -6.74490742   -9.74228106     62.28822490   18.99939704   21.21793579     -1.19209506  -11.72315817   -1.33310508
    1   -0.09109108   -7.98768675   10.20848929      6.97262850   -6.21688171   -0.95251298     12.39141974  -16.16035930   -1.47369276
    8   -4.03851104   -0.27612421   -2.24504240     39.06431298  -25.97388493    6.46257574     -0.73564477    0.64730311    0.46759730
    1   -4.02713673   -0.93901690   -2.98350354     -3.53929102   13.03458099   11.82733354     -2.65255442   -9.02224746  -14.05083388
    1   -3.17223830   -0.51572831   -1.76895214    -36.07019502   12.44865678  -16.09216005     14.29092481   -0.85274337    8.46497757
    8    7.14353024   -9.46862456   -6.78116021   -106.17292899  -97.30442316 -123.25113105      1.46830934    1.03816405    0.84884565
    1    6.75046503   -9.25065643   -6.04134247    -49.69804039   32.05022893  103.07706001     20.75523310   -2.74319525  -21.23349598
    1    7.91895320   -9.17524873   -6.68088722    147.44753302   57.43645125   24.95535232    -23.32968721   -8.90368731    8.30012905
    8    1.33475442    3.69895112   -5.98747522     24.31804895    7.49572710   83.15216380     -0.06812828    0.41695068    1.05168838
    1    0.59833218    3.99303697   -5.33937249     35.24744183  -15.05258567  -35.35573754     13.32794294   -5.02364481  -15.59019796
    1    2.14320198    3.51309362   -5.33343044    -60.50008507   13.53482834  -53.41720885    -27.90781877    5.56120959  -24.53798954
    8    6.40431340   -0.39017758    2.81619171    -59.29311796   35.14651139 -211.13050667     -1.36139671    1.18558820   -4.83981632
    1    6.88495351    0.17278971    1.91896613    -79.13113343  -90.43692380  147.48294478    -21.38809839  -29.81575320   54.80524412
    1    5.42146867   -0.75768332    2.38686079    141.83930761   53.47151915   62.75177164     60.18123545   18.52164655   27.43087268
    8   -5.16678996    2.29846145    5.38769459     44.13871653    6.69529918   -5.88125184     -0.74704550   -0.14522457   -0.08066064
    1   -4.80727573    2.07233022    6.28516382     -7.31522180    4.07683370  -16.71856488     -0.63730099    0.69997359    1.11716357
    1   -4.31209101    2.55380383    4.89059167    -37.57987586  -10.46255373   22.05462072      6.11291309    2.28280331   -4.30572799
    8    2.37119159   -5.56718314   -2.89170970    143.37436466   56.36756218  -47.71420905      0.77128712   -0.97949120    2.07507060
    1    2.07287272   -5.28507041   -3.75780631    -10.33328924    5.33704472  -18.82897315     -1.35926618    4.06653138   -9.04708293
    1    1.68497033   -5.88622195   -2.54632207   -131.37001676  -58.57182302   61.49273768     10.53354891    2.63399148   -2.42015543
    8   -3.70736831    2.33386557   -9.19009689    -12.05938138   -5.62018305  107.11652190     -0.16527082   -0.10163259   -0.81573675
    1   -3.97208851    1.62284339   -9.69035798    -19.85174235  -55.73352186  -43.63996677     12.78440940   19.60106492   19.67490573
    1   -3.45830720    2.93714718   -9.79850529     26.63365441   62.11872963  -67.15684589     -7.02588952  -22.12391504   27.15692867
    8   -1.21306848    7.68657378    3.62561623    -63.08018416  -70.91621500  -24.94195813      0.01872104    0.36734084   -0.16519883
    1   -0.95189776    8.48331356    3.33173839     29.25946070   79.74162927  -25.48892022      0.33203959    9.05782441   -4.43089666
    1   -0.71100899    7.53669439    4.37172206     36.42276684   -5.78764658   52.15437815      3.35367739   -1.31524744    6.66726172
    8   -8.88212194   -5.65277119   -2.06016584   -121.82868803   69.33311641  185.20512624     -2.49956297    3.64944123    5.19311730
    1   -9.08241314   -4.78638622   -1.31681518     40.60927478 -129.23140897 -123.31638101      8.14655639  -86.14502322  -66.58592360
    1   -9.56677636   -6.36911477   -1.61079114     75.88682072   63.83431510  -56.08147560     55.86890623   71.87514177  -26.94326399
    8    2.53881760    6.07442719   -9.88001178    -18.53737898 -105.07655354  202.92955738      1.51816421   -3.38202539    5.44947381
    1    3.47034084    5.60004617   -9.55961559   -100.35920207   55.60612708  -42.49467353    -56.09972008   27.81769173  -18.74485590
    1    1.82964780    5.79438417   -8.97399044    118.47968159   54.07315266 -163.21607341     49.63445721   18.86301413  -63.60861101
    8   -1.54163751    8.71404501    9.64151840     27.91696778   -5.60751729   -8.14906050      3.46938040    1.51891802   -3.85729510
    1   -2.42860306    8.85601194    9.93886440    -31.77484537    7.37458844    6.70454740    -37.49960051    7.25258805   13.31734163
    1   -1.28436639    7.97047660   10.22083021      4.02146737   -1.16072256   -1.99477012      5.25423587  -15.10319185   15.25097278
    8   -3.44815888   -2.05132606   -4.21519529     40.11746779   -0.18236228   18.95143512      0.74964393    0.05336928   -0.04061486
    1   -2.45901031   -1.93158436   -4.02120434    -39.88305515   -3.33556345  -10.01286973     -5.11725266   -1.41839491   -1.80403077
    1   -3.54346214   -1.63048927   -5.08345308      0.87505046    3.54761591   -8.23916598     -0.52177532    0.48612795    0.56598858
    8   -8.57067755    2.83305886   -7.79133585     -8.16956416    4.51816570    7.37414948      3.89592117    5.25067446    4.25489419
    1   -7.61829491    3.01467443   -7.85404658      6.90411312   -0.12075017   -2.56753757    -60.47923336  -14.10982648    1.45714484
    1   -8.82788458    3.37222530   -7.01073766      0.61383491   -3.10836041   -3.73109892     12.89090519  -35.40094514  -48.96181890
    8   -2.87676181    5.66500752    3.12223841   -117.85910146  -72.70405852   65.78559464     -0.20855921   -0.65305993   -0.61042923
    1   -2.34144394    6.31665701    3.28066137     84.67551671  101.20930218   20.96089058      4.74052286   -2.94775551   -0.90768481
    1   -2.58858117    5.33347744    2.35277611     34.70511024  -32.41970295  -85.47945488     -4.27355833    2.50430023   10.33731479
    8   -4.72898821    5.33751199   -6.54918155    -24.10877097   24.49984532   12.18131014     -1.36952168    3.14802577    1.09221110
    1   -4.01235849    5.91686272   -6.87070268      0.45727762   -1.85816277    0.01066390     -8.20345411   -7.89946226    2.38200856
    1   -5.36425333    6.01099446   -6.14601500     20.25339071  -23.49623974  -12.77821320     24.12608810  -24.15291333  -14.14619838
    8   -1.01550586    9.05877739    6.94649339    -35.05630492   67.13011407  -19.90811746     -4.41876089    0.35265348    0.41398169
    1   -1.15890327    8.94020268    7.86258581     -6.77324107   -7.75779254   45.23834723    -10.68275876   -6.69483706   38.64444925
    1   -0.62144361    8.28449305    6.69162049     33.49937561  -66.66550838  -19.84458285      8.92166956  -34.13152011   -4.72139130
    8   -9.13025092    6.17750358    1.84541887     -4.61304014   -0.01254945    1.60136438      4.66629590   -3.76823491    0.49935137
    1   -8.28968275    6.19825707    1.35308871      2.54212752    0.43787297   -2.20582710    -55.60305832    0.76395707   35.44071859
    1   -9.03284166    5.36872304    2.38122512      0.94390228   -1.42567769    0.60141946     -3.67230773   54.24026342  -36.72787409
    8   -3.97588964    8.81330064   -9.65221735     11.90501370  -25.95379713  -10.43231614      0.32422011   -2.01646830   -0.69946880
    1   -4.39430196    9.64136775   -9.88227031    -11.84454488   20.14131550   -4.83347790    -12.82372001   27.94612874   -6.31256775
    1   -3.96285667    8.86060057   -8.69663132     -0.40443285    1.45903504   16.70837470      1.35459568    1.98316121   27.70842960
    8   -8.96797143    9.38960257    8.78559319     60.44085807  -35.31830563   24.20746257     -0.82349165   -1.01482859   -1.26658929
    1   -9.65890794    9.49161697    8.19709186    -49.88046806    5.92488446  -45.01285583     22.11355170   -4.60393986   14.44834679
    1   -9.09566251   10.11714078    9.37362726     -3.26159381   26.97132978   23.13045537      1.25840855  -27.50860579  -26.90878392
    8    0.75427772   -0.94962604    4.51269841     30.41970536   29.59542177   20.79293041     -0.11575733    0.24263275    0.47489675
    1    0.72229859   -0.06177120    4.07388822     -0.34728015  -19.51559198    8.69033411     -1.82975235   -5.31248258    0.29093080
    1    1.43318990   -0.78861032    5.24847591    -27.48122770   -7.96791387  -28.24376995     -5.38882329   -1.82205641   -8.95424408
    8   -4.53868327   -9.23654581    6.39691604     -9.75844624  -16.23455355    3.06709170     -2.75281899   -4.31770187    1.27949783
    1   -5.36660890   -9.66997228    6.75429482     16.06968712   11.96851601   -6.87420260     58.39664804   33.34674423  -28.62852766
    1   -4.01784137  -10.02937385    6.13872025     -4.19085137    9.72199799    2.30887238    -26.76144985   35.67811525   12.67090176
    8    0.48966349   -3.90781978   -9.08654672     14.67448554    9.14995444   21.57133912      4.02476982   -0.31424554    5.53949131
    1    0.73765599   -3.23317070   -8.38141562     -7.83541998  -18.94938970  -19.57728797     -8.29927815  -22.79988243  -26.67953965
    1    1.00896046   -4.70814248   -8.82996536     -8.10051219   11.65070146   -3.11511559    -19.27773101   27.33230825   -9.24197560
    8    2.01083482   -4.75356259    5.51619523    -15.57302507    4.39872250  -19.67613277     -1.78961764    1.04042887    4.06530291
    1    2.54047506   -4.78049793    6.30219882     15.42923510   -1.32692889   23.99398423    -13.18951485   -2.60285456  -20.68813919
    1    1.16240607   -4.41079311    5.85348920     -0.14482526   -0.59167712   -0.05140802     35.34141988  -15.93281380  -15.54674437
    8    4.87947169    1.80086612    9.13030181    -35.28629926   15.37283579   11.68340514     -3.61477205    0.33763551   -0.84086943
    1    5.37114821    1.29416493    8.50445393     20.89036821  -17.95551685  -21.41440011     19.76608223  -19.51101977  -22.37806417
    1    5.56263769    2.12068693    9.72429406     14.27316314    3.60153609    8.22195430     30.20447738   14.58679839   28.05893662
    8    8.81591659    1.38299675   -4.06214777     78.00122330   40.11464231  -37.63681738      1.28412087    2.11842901   -2.73170904
    1    8.43718961    1.53272180   -4.94255178     -0.12908111    5.87034944  -14.96563814     -6.43654217    4.06503252  -19.21196055
    1    8.12898335    0.99420684   -3.66079631    -74.37026658  -43.38305508   51.77320030    -52.84294264  -28.88815236   28.09147483
    8   -9.91916890    7.90737474    5.57081560     -6.95974578  -85.08934403 -421.12257125      5.24795915   -1.19203986    6.25927562
    1  -10.15495647    8.39534157    5.92798874   -109.39091086  249.08780306  227.80820799     13.36434433  -58.01697963  -58.74801611
    1   -9.57626495    7.44276976    5.98176779    132.96183355 -169.22562867  196.70460668    -48.27698595   55.17566280  -55.05176785
    8   -8.48239315   -2.63325036   -8.84180377    -23.49121846  -16.83659658   -3.11310021     -4.97212623   -4.41044441   -0.93800265
    1   -7.74120960   -2.35459722   -9.39466832     13.03473145    4.57251098   -8.10179553     71.97660341   19.80765471  -39.33833108
    1   -8.28278920   -2.19373559   -8.01336651      6.53223442    6.39644268   14.92262200     20.76182447   34.28794607   68.18976960
    8   -7.74294602    3.98700053   -3.59291644    -28.14605575  124.11741513  -80.50687874      0.25746717   -0.64583969    1.20258845
    1   -8.35911094    4.21862700   -4.46606072     66.50525900  -30.21851219   95.16300380    -21.98284351    7.69616602  -29.97110665
    1   -7.29769781    4.94233600   -3.38861877    -40.90322380  -95.06508291  -15.59530362     13.83904613   27.35986533   10.13540317
    8    6.22757463   -8.51537667   -4.36423794     37.68443992    0.48049379  -40.66421385     -1.17740451   -0.23125912    1.56235314
    1    5.53225974   -8.07097857   -3.95209895    -44.85375034   32.87417590   22.13632711     25.04083503  -17.36086228  -10.85938405
    1    6.31310668   -9.25509164   -3.79062147      8.05092088  -30.62297167   18.38989199     -5.37346574   15.44767006   -8.28925004
    8    3.60501616   -2.35600831   -8.80720447    -11.18267239  -20.86133049  -76.10404659      0.85530101   -0.48937566   -0.42683772
    1    2.72811595   -2.12836321   -8.54503114    -30.03501412    9.79031794   13.29168059     -9.34500063    0.86156240    3.80232440
    1    4.08829382   -2.19780512   -8.05471773     36.23847063   15.91365687   64.92698534     -2.17444146    1.63043733    1.12735384
    8  -10.20173587   -3.90904631    6.02755888    -45.72808540    5.56666026  -32.58509208      3.64198365    8.01807695   -6.04924733
    1    9.71854010   -4.59059127    6.44205987      7.90332218    3.73261214   -0.92621903    -71.06592529  -85.27270043   50.95510870
    1   -9.43782129   -3.92310912    6.56252160     37.98276314   -5.17359560   30.50932126     29.58990589   -3.21393380   25.90009162
    8   -0.93485908   -1.10909143   -3.57985453     -1.31545980   62.55285087   75.72413770      0.07742735   -0.84346810   -1.64865331
    1   -0.74054811   -0.09178805   -3.71801866    -14.18534303  -69.48902200   11.65131319      4.24249520   15.29028721   -2.42667641
    1   -1.14957052   -1.16889070   -2.53826230     17.07223288    6.97422222  -86.50061658     -1.28172600    0.90705950   17.85813998
    8    0.13917072   -6.63257305   -1.86926552    316.24199574 -142.20838676   -9.16969162     -2.49965766    0.33039425   -0.59853657
    1   -0.33158087   -6.59773712   -2.43619739   -165.98072527   11.54478029 -200.64857725     15.32554209    1.36129311   11.73936379
    1   -0.22762294   -6.32429289   -1.34536378   -148.63864824  125.95331588  213.88732862     23.21134588   -6.12982388  -26.22396699
    8    2.89547708    7.99814456   -0.53527103     19.45804049   31.50873338   -1.90349712      0.93812583    0.81320602    0.79559335
    1    1.99093209    7.83375276   -0.29705028    -30.30142827   -3.91311676    8.15135097      5.07346022   -3.74487796   -1.63676835
    1    3.23845566    7.12212194   -0.61857970     12.58264886  -30.75583372   -2.87449372      1.41540098  -16.45326771    0.82384819
    8    0.47196266    5.68223039   -2.16223731     -1.52973620   -2.34908318    6.34289324     -0.77807612    0.21767691    0.40279323
    1   -0.12601922    5.24965867   -2.77729052    -11.10070625   -4.06295542   -2.73902293     -5.95144166   -3.60008765   -2.19081135
    1    1.25497205    5.80636270   -2.71480473     12.21603271    5.44647427   -2.86043664     13.68454275    3.51764552   -3.13961670
    8   -0.43099467   -7.70645660    5.06831930    102.00976885   12.08419752   50.95706802     -2.40747606    2.78609637    2.91755313
    1   -1.03228537   -7.96332840    4.48762379    -81.10394404  -28.33736831  -69.61693630     23.03053635    1.96192798    8.30731306
    1   -0.90479154   -7.17214841    5.68630156    -22.88873525   20.00917391   20.04090281     51.49707721  -51.25829707  -64.09644234
    8    6.66958956   -7.87955437    2.93712385      9.00286466   -1.66485416  -10.63299218      1.58777743   -0.12275988    0.87407798
    1    5.86312204   -7.74116727    3.44809000    -11.88111184    1.83241583   11.18723680    -11.34341526    1.36840135    5.68694537
    1    6.31590402   -7.96718608    2.02925000      3.20975102   -0.94033739   -1.29475382     -3.85231297   -2.14138418   -4.44041765
    8    8.82151588    1.58181658    8.56953494      2.98012581 -209.11165597  -37.62799796      0.57234517    1.97004417    0.64490877
    1    8.26309920    1.85047256    9.16767914    -80.31567709   42.56234341   88.24673036      6.24246322   -8.16538519  -20.54606874
    1    9.14832602    2.27308672    8.30054085     72.40784195  156.13356936  -58.27909564     -7.66751835  -14.12055250   -2.69511326
    8    3.54131143    3.39488228   -4.42218595     35.77070452   -1.32312779  -11.55077257      3.28768782   -0.60352275   -0.59610292
    1    4.40234034    3.53980994   -4.94583636    -34.00137033   -8.60436003   23.54897922    -32.13204719   -6.93838227   19.94968324
    1    3.83124443    2.80665316   -3.67348928     -1.72045305    9.66633383  -14.33373709     -4.21803035    2.23030885   -1.40147287
    8    6.54579812   -8.03084992   -8.94051006     37.17612598  101.02136630  -92.89295119     -1.77836076   -1.66112076    1.82761400
    1    6.71199106   -8.47993765   -8.23216234     22.21256965  -71.04905098  109.22382538    -14.63610604   11.74930330  -29.82076467
    1    5.77332389   -8.40190357   -9.24171663    -61.73874715  -30.55703692  -21.30544757     20.97711284    8.33116500   10.67221958
    8   -4.66382452    0.41270557    9.63521846    -55.16267985    6.26533230   78.28973825      2.22565162   -3.33569353   -2.07540653
    1   -4.18786420   -0.39425314    9.56253349     26.68886341  -42.75145671   -6.96961300    -11.42003672   21.84553694    2.52523832
    1   -4.40693433    0.85347685    8.89358596     25.28286000   38.48119949  -69.85633702     -5.72866427   -8.02512013    9.57790057
    8    4.97345768   -1.97296077   -6.52668671    -12.73747545   51.87901184  -35.06893605      0.77290712   -0.53517352   -0.37102078
    1    4.98237129   -1.83251754   -5.60168557     -0.12251254   10.47635295   44.99626490     -5.10460940    6.05056962    5.00858455
    1    5.16762080   -2.87288987   -6.56672932     13.92175883  -59.57716941   -5.34288458     -6.81086293   24.17142361   -4.32902262
    8    5.74296160    8.92767512    2.29278868     29.13782558   10.72556450  -47.20423124     -0.97792808   -0.13061101    0.29349057
    1    5.19480468    8.60365111    2.96812232    -32.10733552  -16.42498587   39.23433058      3.65252595    3.93500649  -13.71980164
    1    6.43236068    9.39475815    2.79246976      4.33498800    5.61617188    4.57001459     11.21431564    3.93724840   -0.52365644
    8    0.42410881   -8.89486710   -6.71310297     -1.25410353  -20.99820819  -18.35858647      0.38275632   -1.13506790   -0.76372281
    1    1.38538795   -8.76860750   -6.60866174      1.90181620    0.20095332    0.38207633    -46.41550835   -5.53087371   -4.73046760
    1    0.39887344   -9.66771006   -7.34978129      1.76760385   18.72846313   16.82677919      2.41389049   55.55284731   45.04118473
    8   -0.84615958    4.50343467   -4.43371251      4.00181157   -5.48309608   -2.09326342      1.10606647    0.29955576    0.50054889
    1   -1.14725699    5.43142963   -4.47014953     -0.16654560    3.89543926    1.30277199      1.13960909   -8.16177479   -0.82208366
    1   -1.64605215    4.04085254   -4.75792002     -1.27410657   -1.05923254    0.28493439     -5.88460428   -0.06918199   -2.08904379
    8    4.70550323    2.59764278   -8.09204707      1.92621024  -41.51434197   -1.51923877     -1.72794071   -2.23877674    0.33544742
    1    5.22054718    1.71731123   -8.07960299    -24.00464487   37.17828555    0.57900182    -18.46988043   34.57469863   -2.07241492
    1    3.74976379    2.29571445   -8.06773736     24.40729894    5.53014445    0.30917341     53.42388435   16.69064616   -4.21388679
    8    2.81474854    5.82493688   -3.53584465     -6.76511884   -8.75410358   13.36189442     -0.77814059   -0.14305567    0.96747424
    1    3.06565684    4.97732035   -3.93083942      0.95368792  -12.99578203    0.01106683      0.35223312   -9.06522654    0.99718842
    1    3.10936216    6.43450700   -4.20917502      6.54843521   21.39766744  -14.63782013      6.26420255   17.34377541  -11.96178970
    8   -2.93526505   -3.22911028   -7.41943979   -284.74712582   75.63230895  -27.80977639     -1.00283866    0.89576805    0.43715904
    1   -4.11378754   -3.42610257   -7.68072467    251.00718170   27.94087136   48.82815193     37.78646472   13.84189174   11.75123937
    1   -3.03440195   -2.19920530   -7.10990098     22.08465275 -105.32623127  -28.71845472     -9.11846428  -46.72917186  -15.06103746
    8    9.79263141    1.23930997    4.73946854     10.80256251  -35.96701359   -1.53922774     -4.34033271   -0.01705639    0.56682139
    1    8.81962986    1.23558480    4.81156508     -4.86186803   -2.32627331    1.22392402     70.69503543    4.54818579   -3.65961069
    1   10.01912038    0.26361661    4.81936171     -8.09616691   27.87200210   -1.04365875     -8.01907402   33.19589255    1.07827922
    8    7.24642867    8.92024906   -8.48912889    -57.96362764  -13.60174296 -109.63841061      5.05873820   -1.97219562    8.38305919
    1    7.16961306    9.65745040   -7.97829318     -2.87082636   66.40350665   51.97562758      8.28806912  -48.51196167  -36.32163954
    1    7.78941996    8.38872471   -8.02328643     59.37483285  -50.90143990   55.53581571    -68.14835037   67.11732406  -58.68799105
    8   -2.88470360   -3.50963980    3.02204234     79.55265690   36.15740157   43.99078556     -0.32514515   -1.81872378   -1.97828646
    1   -3.25634245   -2.68535614    3.47614946     12.78869575  -30.72126355  -16.97701010    -18.35880862   29.31366986   14.23642896
    1   -1.86527548   -3.46984959    3.33926751    -89.38063076   -4.33011056  -26.66606444     19.22049502   -2.58129253    2.03777553
    8   -7.28676394   10.21201093   -8.83190667    -35.11004973 -175.14925801  162.63942262      0.65492870   -1.92139875    3.47992919
    1   -7.82756374   -9.85036104   -9.23234542   -119.00083699  106.06594805  -97.92810922    -10.35925053    1.38676935    6.08034254
    1   -6.56357260  -10.01882535   -9.09227016    152.41275732   65.23807356  -61.17412054     30.80647167    1.24613238   -0.57871942
    8    8.61173397    4.20780650    1.47868128     35.63587433  -43.46468511   -6.65128394     -0.67860644    0.10757115    0.70043158
    1    8.27515385    4.57012133    2.29666607     -6.45779582    5.53275931   16.82762059      3.13768714    1.53256040   -3.42495255
    1    9.19458060    3.42805375    1.78697680    -27.51946133   36.03623416  -14.24887049      6.24695035  -10.81933487    4.23873101
    8   -7.92196577   -3.92925744    7.42001454   -143.80263303 -123.80484067   18.34090939      3.14741381    0.25483342   -1.38419327