 BEGIN_INFO
   #
   # This is a XCRYSDEN-Structure-File
   #
   # aimed for Visualization of geometry
   #
   # Launch as: xcrysden --xsf HICOLM.XSF
   #
   #
 END_INFO
 # estrutura final
CRYSTAL
PRIMVEC
      18.57939115       0.00000000       0.00000000
       0.00000000      18.57939115       0.00000000
       0.00000000       0.00000000      18.57939115
PRIMCOORD
  585    1
    8    6.39174346   -0.64272851   -1.00811148      7.80365651   -5.38095001   -5.49341448      1.75684360    2.42387879   -1.62119917
    1    6.96389958   -1.25021820   -0.50629109     -6.23148010    0.03165801    3.46294627      4.45138058   15.04060541    4.14727742
    1    7.04239119   -0.18725017   -1.58312439     -3.86510682    6.56122561    5.02423043     -0.63783693   21.86421320   11.79153332
    8   -7.25323348    7.68104813    8.15550310     -4.40194839    5.30688214    1.87271066     -5.42777842    0.79447943   -3.29891991
    1   -6.39858188    8.15192382    8.18492409     -1.25576208   -0.74323895    3.04229288     -7.89772058    4.84485902  -12.47537741
    1   -7.00289276    6.77805617    7.90541012     -1.11393206   -2.20969337    0.08046733     -6.24589466    3.98009207  -15.58197617
    8    1.92048278   -2.66515514   -8.16448067      5.62751168    6.66962173   -2.02504859     -5.40969913   -0.60772216   -3.87923073
    1    1.62070509   -2.51381166   -7.24428600      0.29559481   -2.61443948   -2.88469086    -11.42556989   -3.22695010   -4.89069923
    1    1.79810874   -3.60677523   -8.29364106     -4.57237994   -4.75531891    3.15604624     11.47831265   -1.66556652    5.10211339
    8   -5.37147369   -0.40923047   -0.52958988     -2.27772067   -0.69489456    4.58663355     -0.99841352   -2.70906738    0.63149547
    1   -5.84905886   -0.23931323   -1.36062664     -1.89791922    3.69042846   -0.79030018      4.91222104   -4.31099516   -0.83940378
    1   -5.21307904    0.48825155   -0.17717363      4.11033901    2.93324856   -3.24337477    -10.00188870    1.82469863   -4.53465750
    8    2.36845466   -9.27372831    9.14569151      5.40872490   12.24519711    7.61433707      0.41471854   -3.36978028   -0.19791832
    1    3.07733968   -8.68830042   -9.12824417     -1.82772153   -6.33114758   -5.98022107      8.81323829  -10.62094257    8.26744850
    1    1.63090569   -8.99178732   -8.85716458     -5.33738445   -6.25459720    2.50837409     -1.91333972   -4.20267799   -3.28136114
    8   -5.04538037    8.54492748   -3.17144487      7.44563229   14.48448566   -7.29326851     -1.93439391    2.08220785    4.04475824
    1   -5.46238240    9.06986194   -3.88647340     -0.38238343   -4.59759969    7.91329325      2.72372354    7.96314774    6.10908221
    1   -4.45186519    9.17789241   -2.73439338     -4.55406895    1.84246477    1.36391183     10.38756280  -14.58578298   -2.98444410
    8   -0.64445454   -2.78944635   -0.95996982     -2.25931760  -22.78797317    2.60850384     -0.02990693   -8.35124121   -1.56333171
    1   -0.23884090   -3.63986195   -0.70754794      4.55518157    8.86473366    3.25333302     -6.86236978   -8.96867930    3.87609520
    1   -1.13200091   -3.08194618   -1.74768216     -2.23333304    9.09682701   -4.25675225     -0.29306153   -2.12206999    1.85702788
    8    9.24629964   -2.21166759    3.20493930      4.97446143   -0.81562821   -6.02255390      1.15138345    2.07581081   -0.80212085
    1    8.50053460   -2.26103629    2.58740229     -0.22519525   -0.79111602    7.56950500     -5.27219282    7.54308470    0.12814387
    1    8.85186363   -2.44799678    4.05616256     -5.83420352    0.85234229   -1.70464628     -9.27987401   14.14646677    0.10122604
    8   -3.68704601    1.16535817   -7.62564722     -5.75137334   -1.53466667    0.25975620     -1.54359834   -6.80401885    2.47554820
    1   -4.61227686    1.00707720   -7.39451310     -0.98894388    4.25677480    1.28164128      0.02250367   13.59317377   10.23546829
    1   -3.54842858    2.10453758   -7.39790863      3.25567894   -3.81056129   -0.04850635     12.93058064   -3.79709652   -9.33741401
    8    6.24324493    2.32229238    0.38085259      7.01088509   -3.47625849   -0.21376460      2.26384783    3.72013621   -3.21167698
    1    6.55376252    1.59412385   -0.18265380     -6.99237889    1.81238658    5.02058075      0.74456402    1.82408094   -3.63484019
    1    6.88187645    3.01996065    0.17150453      1.28041721    5.10664064   -1.09127350    -14.83815897    9.77291699  -21.95257005
    8   -3.73894224    7.87965826    6.37450716      1.32816886   15.36766898    2.29675662     -1.97089577   -2.11467933   -2.99602438
    1   -4.24805662    7.28695930    5.81994796     -3.28210477   -1.70866483   -6.75338643     -0.99124354   10.65492790  -11.04999839
    1   -3.69511391    8.70770282    5.84799896      3.27932017  -11.46294901    2.80479370     19.97573672   -1.40247333   -4.49698984
    8   -6.81214930   -8.87904782   -4.97645738      8.36616420   -8.26184545   -4.78162779      0.68422623   -0.06914642    0.19766677
    1   -7.47901334    9.20773811   -5.49017843     -3.34604742    6.63354061    5.99509686     -8.18651766   -1.19345158   10.65526541
    1   -7.33255831   -8.25803201   -4.41861958     -5.22043644   -0.53865162   -4.77057926      0.41628232    0.75426595   -4.72689186
    8   -9.23710654    3.05181714   -3.44948435      8.92421044    6.98449510   -3.48082215      2.65604872    3.70142723   -1.71983856
    1   -8.54936737    2.74451946   -2.82749257      0.57663628    2.34328717    1.58640957     -3.97844183    1.78313507    7.24450313
    1   -9.21142613    4.01893424   -3.29729189     -5.14520953   -4.74797993    0.33191189     16.40035720    6.25746021  -15.77344668
    8    9.04418694    0.76257321    3.54484623     -4.14051616   20.95118832   -1.27016958      4.81743879   -2.03055329   -2.11678718
    1   -9.16258037   -0.02658358    3.13669384      0.17743795   -5.19626394    1.46906780      9.20596314   -1.42483313    0.15337816
    1   -9.13126960    0.76983909    4.42577672     -1.28962672   -9.79661454    0.09379754     -7.77122739   -8.42108096    3.66622369
    8    0.13380342    5.56263859    7.53669558    -13.06951688    5.02595429   -3.62673408      0.96084995    3.61318340   -0.08110342
    1   -0.77145202    5.91295481    7.68777936     -0.98148100   -9.33721719   -0.10123115     -6.12701429   -3.64997495   -2.92185915
    1    0.64307960    6.10899150    8.13104304     10.97563260    2.63164986    6.48858693     -1.57740686   -1.89878582   -0.34254871
    8   -0.28071883    0.46414010    1.73197110     -2.43881944   -4.71314670   -1.89036815     -3.89539041   -1.83635775   -0.21232983
    1   -0.41676834   -0.48055948    1.92231118     -4.34228383   -1.73974032   -7.53604921     -7.87038535   -7.94024197  -20.31745927
    1   -0.07351550    0.78279708    2.62613134      2.62065958   12.78464406    2.01435456     -1.23591187   -1.68672767    2.66094791
    8    0.81842810    4.57606710    5.14348981     -1.57264898    2.77952042    5.97825718     -3.68503772    0.70080951   -5.16586318
    1    1.78392644    4.42826983    5.16756408     -0.64332032   -1.34870211   -6.52918625     -7.34509830  -14.74293838    0.37802286
    1    0.62694095    4.87166395    6.06623141      0.46500175   -2.07897769   -8.45576624    -11.27067085  -23.08354903    3.32785319
    8   -7.46751314    2.41395880   -1.51601126     -3.27728697   11.27030870  -10.69373659      2.40605550   -3.99867036   -0.79585051
    1   -7.34702178    1.49106996   -1.82741873      1.41092598   -2.56169510    3.89231867     11.34131374   -7.26708397   11.11102095
    1   -7.32569423    2.33790761   -0.56639308      0.38178698    0.41370818    5.77371394      8.64697010   12.66006354   -0.70772074
    8   -6.89915519   -6.67708715    8.41144486      1.66675530   -3.84995426  -10.18496743     -2.77746312    1.91038143    1.70225743
    1   -6.83533561   -7.56094619    8.02168243      1.11809699    4.63764341   -0.34435383     29.04338010    0.68622806    7.10613522
    1   -7.27470457   -6.85960742    9.28154849     -6.12240550    3.86036917    5.57102203     -0.75246718   -0.75023587   -1.44105576
    8    7.71245050    7.04780532   -5.04941482      9.93001325   -4.52842370   -3.29993769     -0.43574799   -0.49680298    5.72856720
    1    8.52613599    7.42042547   -5.43121127     -1.92146017    0.64737417    1.98678095     -4.78943522   -0.42367239    2.17329292
    1    7.84440293    6.08718087   -5.18740152     -7.35321228    6.47783347   -1.43809983     -4.92810429    2.75096865    3.17474499
    8   -5.34782663   -5.74712551   -7.27281695    -13.05190989    7.64594690   10.23750263      4.95500707    3.09558066    2.84129617
    1   -4.99470784   -5.10605782   -6.63248306     13.61568484   -5.19717547   -0.03403638      4.48207895   10.95786368  -11.40056650
    1   -6.29229376   -5.51135342   -7.19904552      2.20149597   -9.03961653   -9.90231992      0.67537119  -12.64876913   -2.10757596
    8    2.53989897    6.62400934   -1.94582239      0.23955819    0.09580536   -7.69466634     -0.93442384    0.08179411   -2.07507627
    1    2.54029236    6.03824260   -1.17261112      2.99756649   -2.84029873    3.14042983     10.24323425   -2.34144129   -4.79802983
    1    2.45304504    7.49227864   -1.52965535     -1.13539076    4.06674456   -2.05929364     10.10237877    2.62768003   -3.43260565
    8    5.31678253    8.22122666   -0.55166271    -12.57349151   -4.83610129    4.28507542      0.59789343    3.90971907    1.57777716
    1    5.40027428    7.25356597   -0.64912551      4.72764447   -0.96474770   -3.76903161      8.44319022   -1.20658744   12.22236591
    1    5.54747064    8.53278876   -1.44488024      3.73381557   -3.04339284   -5.65358709     -1.61388309   -6.09176470   -4.66350445
    8   -3.29065596   -5.99018009   -3.16310049      9.06337830   -0.67053954    3.88388316     -0.11060261    2.05235506   -0.66367915
    1   -3.50198886   -6.70306318   -3.77017970     -2.84922401    0.58206033   -2.64487939      1.77979793   -3.54086693    7.92092507
    1   -3.10910413   -6.46564604   -2.33621792     -6.87311510    1.38224240   -2.07594304     -8.90212698   11.72728780    6.25939099
    8   -2.70708702    3.70392504   -6.97684540    -14.19983478    1.61695320  -13.20975979     -6.36376885   -0.37065516   -3.27289181
    1   -2.99574076    4.42009402   -6.37297181     10.01751138   -8.48794653    0.03719720     -3.67815772   -1.28777293   -0.38935403
    1   -1.96034360    3.27997794   -6.54260210      0.59493834    5.01895340    9.25998114    -19.40846532   -7.41943725    8.28120629
    8   -1.13390845   -8.96047121    2.55910054     -2.15090000   -8.94712449   23.85362210     -1.17419634    2.65228327    3.58946445
    1   -0.30128893   -8.46510191    2.68459292     -3.23936850    4.24396780   -5.07978475     -5.68347951   10.34650036  -10.36756606
    1   -1.57873644   -8.78283508    3.41972791      0.75907499   -8.57708732   -8.17102660     -2.85981118    6.95986131   -0.48308599
    8   -4.25171478   -2.85934356   -0.92375293     -5.53517875   -1.38710959   -3.12804141      0.19783342    3.80575976    4.84692405
    1   -4.89365932   -2.13533606   -0.81590421      2.27971524    2.01308128    8.00103486     13.69724568   16.58654229    7.84558230
    1   -3.71550747   -2.53662649   -1.64520991      5.46276555   -1.89226341   -3.20831999      6.33322381  -10.86470950    2.82652598
    8   -2.37514167   -5.65784397    7.49701673      4.15208156   -7.60914344   10.30511097     -0.42782325   -1.25757425   -2.41562887
    1   -1.51967088   -5.86597351    7.92969533     -5.45779676    5.83487651   -1.52008087      1.84141255    2.36930974    4.04665172
    1   -2.17441169   -5.79175139    6.56719782      1.01350192    1.42593991   -9.71142273     11.46859864    1.85634299    1.93227828
    8   -9.21861263   -8.95696081    8.57370717      1.51853661   -7.65161785   -4.92733230      0.91803521   -0.05743028   -0.94275943
    1   -8.86882963   -8.58246418   -9.18898968      2.95968392   -0.08902576    1.69008311     -3.10861500  -26.66691779   10.62230825
    1   -8.61673585    8.87253644    8.37372960     -0.75690991    3.92498067    4.35002697     -0.20009083   -0.42331169  -13.55441500
    8    5.76988696    3.95341082   -8.37480625     -7.66137671   -4.12957412   11.28303836      2.82878159   -0.81475119   -0.42427904
    1    5.38432404    4.14029114   -9.25432853     -1.86205424    3.34260552    1.60540445      5.75036856    5.33049485    2.31354706
    1    4.97659421    3.93933003   -7.80441034      7.75966821    3.27320106   -8.21583233     -1.85490198    8.11765873   -5.23682874
    8   -7.85834088   -4.58569387   -6.62537725     -2.64556302   -3.09703149    6.81784668      1.94317403   -2.00113885   -2.05934156
    1   -7.82187298   -4.59649354   -5.64565314      3.60237174   -1.47073105   -5.31614760     16.27203525    1.27200391   -2.87623767
    1   -8.06377189   -3.66838698   -6.82212411      1.11102334    1.06052883   -1.38310305     16.88328147    0.21968501   -3.47183442
    8    0.55158659   -8.71828767   -7.51376133      2.89199012    1.70242636    8.28958711     -0.87154115   -0.50804941    1.22502631
    1    0.50790191   -7.77336373   -7.29788632      0.87918829    1.02321467   -5.26678706     -1.24407452   -1.70939402   -2.51316825
    1    0.41977475   -9.12601595   -6.64888465     -1.16391576   -2.37845469   -6.45672582     -7.73003156    0.46736812    1.07893620
    8   -8.90721460    2.59599093    1.11833699      6.17246876   -9.67765197    6.33403505     -1.74854811   -3.53122526   -7.57888701
    1   -8.83619146    2.56367932    2.08596304      0.06114283   -4.03922868   -9.68001720      1.46736101   15.01469376   -8.10716897
    1   -8.67849440    1.67352560    0.84737013     -2.15361012    7.45509938    4.98744677    -14.27439991   -8.31670438   10.75043395
    8   -3.75235306    5.52247325   -5.18176112     -1.49505714    4.96713667    1.82045872      3.87867556    2.64986943    0.90245757
    1   -3.51870639    4.72037340   -4.67827298      2.81411087   -0.96537768    3.39219277      9.73005634    8.73236808    2.76919757
    1   -3.97852021    6.14955008   -4.47867595     -1.17419309   -3.35099896    1.32065026     -2.99400605    5.12762819   -2.84617406
    8   -8.09463445   -5.49366140    5.97083392      4.17940622  -14.33115224    6.49344983     -0.42514830    0.14198113    1.51177758
    1   -8.45973546   -4.65382128    6.29842964     -2.62084161    5.86519660   -2.26040949     10.16338563    9.17846242  -12.77899147
    1   -7.76553727   -5.89788143    6.79505590      1.73955381    1.53712049   -4.20220085     13.58502198   14.03595229    8.68806412
    8    2.92900778    6.70221386   -8.92929498     -3.63120990    2.10976392    5.52609916      1.60089035    1.51268233   -2.72614381
    1    3.28142165    6.57076490    8.75845259      1.22460845   -0.74944760   -0.65250149    -10.12199449   12.94201121   -6.44417117
    1    2.66997804    7.64225307   -8.95300372      0.59483412   -0.97655854   -2.07042462    -14.63723258    0.26059712    3.64064338
    8   -2.34715645   -1.72022438    7.94695984     -2.71852870    6.56395314    0.14771809      1.98712949   -1.17634624    7.73940068
    1   -2.39640401   -2.41797259    8.60788824      0.47768446   -7.35762864    3.73506662     11.21257584   -7.06246748    6.10959161
    1   -1.52703745   -1.25250839    8.20998869      4.19040154    0.71708141    2.32694081      4.08245517    2.04131239    8.61262963
    8    0.33542689    1.49209699    4.10279915     -8.57549818   -0.08338941   -6.09026737     -0.01070220    1.91243798    5.50086010
    1    0.43522129    2.44257944    4.24441970      6.87882355   -0.48964746    5.21175839    -17.63850424    1.84575513   25.28733002
    1    1.18775627    1.11613038    4.35094233      6.18138301    2.12509263    7.85059101      8.59678726   18.81464728   14.89387943
    8    3.49415752    4.18135216    4.48453901     -6.24783867    3.39420992    6.20303758     -0.30455532    0.83962482   -0.51753933
    1    3.86842866    4.70128964    3.74495496      6.80341618   -4.89848213   -0.29524652     10.53752583   27.10611548   27.57129468
    1    4.27584362    3.94184751    5.01011757     -2.67725862    2.01777674   -3.11620656     -4.07821163   -4.83997238    9.33143225
    8    3.83588793    0.39393360    3.03853376      0.09587336   -6.59332023    5.32508615     -2.19048347    2.56739155    1.86914274
    1    3.88640192    1.21833143    2.54222268      5.27586485    2.37088079   -1.10347144    -16.53921760  -14.32631650  -20.18706251
    1    4.75499717    0.10279630    3.13568804     -5.03105289    8.00376390   -5.01302966      1.75445315   14.74948386   -5.91242181
    8    5.67819084    3.37419344    6.02017557      8.66499601   12.25343763   -6.64539705     -2.65587701    5.16706131   -0.13974673
    1    6.47769652    3.93623978    6.00794399     -6.14761228   -5.85950614    1.77942809      4.75071350    5.55967380   -0.72510878
    1    5.77808760    2.88906624    5.19162955      3.38042098   -7.09072923   -3.79813426     -8.12114300    5.52056118    3.13357765
    8   -8.22822144    2.89880769   -6.13925866     -5.47769755    1.39805621    6.79630394     -1.75408978    0.12132813   -1.46738856
    1   -8.71441681    2.98917508   -5.30054580      3.31891577   -0.01990492    0.26998320     10.52661846   -8.99030991    5.58607414
    1   -7.57035885    3.63420946   -6.10728578     -4.39818153   -5.60183015   -1.50569869      3.09236496  -10.03232877    3.59042699
    8    5.27484332   -9.01709865    6.47923174      4.23489981   -9.46695950   13.10345635     -0.94026839   -1.74355866    2.23413742
    1    5.50184261    9.05139797    5.68493211     -0.16756135    1.04905865   -5.61228832     -4.33691586  -22.81508922   22.31787706
    1    6.11999666   -8.54814592    6.69953633     -6.08571533    0.62248845   -2.31445749      8.29603169   -9.32683673   -5.47572744
    8    1.06181010   -5.96542222   -7.07784241    -10.26251021   -1.51048162   12.61430432     -6.36108611    0.92247922   -1.38852099
    1    1.62077279   -5.99336295   -6.26484201      2.57205216    2.92844377  -10.10033237     -1.56591965    9.84414883   -3.69024263
    1    0.21175731   -5.67053161   -6.71102680      1.54218947    3.53158883   -1.65181611     -4.38536268   -0.76876495   -3.05601512
    8   -1.12860893    1.52348038   -4.94630249     23.53800315   -2.56517814    0.77239723      1.48433625    0.08196716   -1.92993663
    1   -0.36635681    2.02906730   -4.59706088    -17.27069280   -3.83330495   -4.81994549      1.17587462   -0.54560753   13.55412294
    1   -1.88438487    1.91237937   -4.47898846     -4.01541258    7.04244265    1.59812116      0.08565281   -2.28683261   -8.69807483
    8   -7.57860188   -4.52385621   -1.15228844      5.15199732    2.40596207   10.61502451      2.23343094    1.16389111   -1.18683763
    1   -6.87216820   -5.17217989   -0.98350970      3.15301545   -3.55994373   -6.65806563     -2.42659250   -5.47097561  -16.94722324
    1   -8.01544729   -4.52487307   -0.28088156     -6.89855837   -0.00737253   -3.35614871     -7.66092919  -14.80057122   -4.98020946
    8    2.44748508   -2.50876574   -1.64411463      2.01259923   17.22479301    1.55816837     -1.21197595    3.18090992    0.12372271
    1    2.91581035   -3.28421317   -1.31262942      6.19830027  -12.62542709    5.92905359     -1.47268534   -0.27196487    6.81423821
    1    2.65856460   -1.83938464   -0.97058851     -5.91909297   -1.79263319   -7.41376243      2.38721152   12.90692381   -1.15808747
    8    3.82073551    6.78982848    6.92086552     -5.42111873    3.97883856   -6.29946834     -1.96637708    3.92796875   -0.11915835
    1    3.39148937    6.91582889    6.05310491      1.12226125    0.31517904    3.47150462      2.38151039   11.22979621   -2.28670912
    1    4.39439621    7.55925931    6.99670934      0.63583909    4.03167245   -2.32760672      0.05722276   -4.54391871    6.65982580
    8    3.39362058   -4.78820174   -0.54926551     -8.29305460   14.14829385   -6.79841109     -3.96169289   -1.42869989    2.55031268
    1    4.10914520   -5.42458582   -0.67208007     -6.44771677   -7.14078470   -2.48135070     -5.08103633   -4.13068256   -4.11588404
    1    2.56428535   -5.27326383   -0.68107950      6.52539632  -10.04591686    0.03343805     -2.16692807   -9.80805287    0.23618047
    8   -0.32794869   -0.34535479   -6.91390262     -1.93687030   -9.55950811    1.69613440     -1.01042041    2.55068929    0.08201438
    1   -0.02595103   -1.13256773   -6.41213945     -1.93200845   10.98805603   -3.77020998     -8.49168336    4.62038074    2.80390088
    1   -0.81197301    0.18112925   -6.25336887      4.45186902    0.69389481   -0.56688591     -5.17839728    2.66652355   -6.23230780
    8   -6.03343236    7.08779935   -7.55058645     13.63265151   29.18089961   -6.77462976      1.75041216    3.34889373    0.54546827
    1   -5.08872705    7.14173982   -7.29750796     -6.34330097   -7.49390412    0.09874567      5.51035126   -8.60276110  -11.33026845
    1   -6.01358701    7.69462765   -8.31109369     -9.86648036   -7.39647518   -1.39331081      5.77495630   -6.32277139   -5.53699161
    8   -4.28971770    2.64807570    5.02054236     -3.01238906    4.95494804    2.39287247      4.13598075    0.69257116   -1.19882134
    1   -3.53487942    2.03206947    4.90153006      2.14793665   -0.76958943  -10.79284235    -12.23163011  -27.51721050   -4.29081003
    1   -4.55808720    2.46415990    5.91867372     -4.55528345   -0.24682321    7.64079028     -8.92141128    6.93353915   -6.30123585
    8    2.56481835   -5.81710439   -4.84597203      6.20591108   -6.25471471    3.79980199      4.08302457   -0.89812176   -0.48193751
    1    2.93474891   -6.45877789   -4.21676717     -3.72610799    3.96206298    2.55104374     -3.38714980   -2.72777149   -5.17364314
    1    2.12864678   -5.15155706   -4.25764677      1.52278708   -4.97327190   -5.58305606     12.61859019   -5.53386287    4.21427355
    8    1.17210440    8.09674416    2.02667840    -13.29043843   -8.51480772    0.25220004      3.07670238   -2.00609614    2.44842499
    1    0.98998401    7.16275717    1.81167491      0.56304224    4.64218399    3.40919439     -1.40298531    1.46057749    1.26230609
    1    0.28919173    8.41605424    2.31109915      9.15437459   -0.63512313   -4.58027580      1.45601851    3.01796859  -14.59584861
    8   -8.84101103    5.54650942   -2.43969771     -1.62114851    0.01630302   -2.24929563     -1.79849583   -6.70486908    0.33544134
    1   -7.89967483    5.44447072   -2.25351834      2.25460067   -0.79376788    3.74910405     -3.95237390   -3.25269872   -0.13674510
    1   -8.93534064    6.50052031   -2.51062031     -2.68503146    1.65842169   -0.31135921     -5.99752546   -6.89442066    5.48048082
    8    7.04616527   -5.81070849   -9.17647399      0.04553389  -12.58021251    8.97005154     -0.92633147   -0.28231882   -3.75034976
    1    7.53330285   -6.33965970   -8.52429708      0.73984348    1.08061157    1.06626047     -7.57143080   -8.61592368   -1.96192639
    1    6.45177769   -5.29463685   -8.61104295     -0.60885171    6.26902426    2.65026330     -7.29047147   -5.69756991   -4.38870452
    8    2.90006764   -7.96633782    6.71074068      0.91542810    3.56722533   -0.32402331     -0.32408772    0.25364122   -0.18272917
    1    3.75955090   -8.43954802    6.64731288     -0.83596194    5.93573664   -4.48522510     -0.35293939   -4.93409804   -1.63863585
    1    2.38540912   -8.55984273    7.26717431     -4.47824869   -1.05169315    4.20491529     -2.24681570    7.49944459    2.24710477
    8   -1.44519337    6.53257798   -1.33336267     -5.92331200   -9.16961895    2.42828137     -3.37261408   -0.06048693    1.28768195
    1   -0.53462154    6.39894695   -1.60648329     -0.64935807    4.76945928   -0.61258688      2.09046788   -3.86461470   15.79887642
    1   -1.55890426    7.49282645   -1.30453079      6.64015377    3.01013224   -2.28300947      9.68504167    2.91638594    7.52655901
    8   -6.05387721    1.95198392    2.97551588     -7.11844216    4.28217574   -8.92618806     -2.51576394   -1.13878312   -0.16285979
    1   -5.58710358    2.27914647    3.76215387      6.15033670   -7.54179946    6.80842965    -21.17655063    1.13812964   13.96615669
    1   -6.36636030    1.07051511    3.22658044      0.30900647   -4.14431356    5.13121301     -5.46012005   -0.93874108    0.28813338
    8    7.64151075    1.97144634   -8.25632353     -7.92732208    7.01041333    2.47516120     -1.58413535   -4.42224002    1.07879224
    1    7.09018081    2.77074310   -8.37984110     -1.47265474   -4.14598598    2.30539122    -12.06456951  -12.22885950   -0.04349651
    1    7.40998259    1.67554614   -7.35791293     -2.50315596    6.83378025   -1.47967775      9.39062904    4.11402518    3.13695984
    8   -0.98171014    2.42719696   -1.95520787     -5.67412700    0.61002585    2.19002572     -1.95042325   -1.85326384   -0.82896113
    1   -0.75615462    3.03451981   -1.23902011      3.04106757    1.32428981    0.68255370     14.72609014    3.92575027  -13.27584559
    1   -0.79283302    1.56328429   -1.54625137      3.34810372    0.08824512   -4.82952680    -11.42173111   -2.29322234    1.00515769
    8    3.62787628    0.96734768   -3.61195797      8.33815875  -10.32575729    6.70681924      0.34372073   -3.23059124   -2.44085429
    1    2.78411764    0.71022395   -4.01009675     -6.84232787    2.77402655    1.89656301     12.34986963   -2.87391533  -16.72199240
    1    3.86875437    1.77697220   -4.10408865     -6.52937406   -2.81059098   -4.58427986     -0.17443454    1.86490307    1.55351857
    8   -4.21900779   -1.06749592    2.84132362      1.90719991   -5.90976358   -0.65193968      1.09885947   -0.26666441   -0.28332046
    1   -5.15214967   -0.95268116    3.08654846     -2.40852638    1.12975543    0.49374255      1.29645297   -9.16723604   -0.07227634
    1   -4.13258432   -0.55234371    2.03253940     -1.29772312    1.62688940    1.32231367     -2.05619878    7.70234409    3.38537540
    8    0.58825923    3.48834247   -9.24178117     -0.29053137   -4.92288389   -9.51279268     -0.59841104   -5.95513464    0.25213743
    1    0.40433423    3.89927106    8.47101992      0.81048871    6.35611339    9.67579365      7.70613163   -1.14449446    2.60744225
    1   -0.16768382    2.90630589   -9.12204841     -2.10446872    0.06672943    4.76581743      3.30668291  -10.53196060   -9.72350739
    8   -5.03949640    2.15122308    0.53184217     -2.05161985   -9.10252245   -9.93154971     -2.78833340    5.50949345   -1.01941046
    1   -5.43607697    2.08314499    1.41569033     -1.15971749   -0.86418759    7.08991527      5.74212557   -2.56925530    4.66586774
    1   -4.62839877    3.03789629    0.55774620      0.48661832    1.03066397   -2.63496112     18.45059353   -5.07008194   13.70350459
    8    6.80590208    2.53596262    3.32719505      5.48257867    1.70913425    3.87992601      0.01255145    2.80690955   -1.83715040
    1    6.67854195    2.40678492    2.37335216     -0.34682703    0.04622357    1.23885598    -10.26325211    6.47397551    0.22807624
    1    7.66078475    2.09967370    3.50123248     -5.89574555   -7.25994302   -5.27733351      0.37762023  -10.42312604  -16.02551206
    8    5.08439864    8.31584771    4.12360290      0.32425315    7.19979367  -11.60433190     -0.75680107    1.33477668   -2.83563891
    1    4.25883721    7.79144707    4.08903589      1.60673467   -1.68419834    4.44537377     -3.51161414    1.96611961    0.48919382
    1    4.77275293    9.18688255    3.82514078     -0.95105405   -1.10894646    1.96797510      6.20673463    0.22491201   -6.91640151
    8   -9.25172358    6.67613362    0.90572343      5.00387808    5.55038242    3.54879597      3.76793968   -2.73772311   -2.75344629
    1    8.87843968    5.82463817    0.84560568      1.35116426   -3.35981448   -2.87136057      6.95241022   -4.72866998   -3.87107716
    1    8.67897551    7.22430397    1.35776360     -3.33932209   -2.29879144    0.00175884     -1.97470216   -5.95177617    2.93983972
    8    2.43590109    0.19768524    6.04503228     -5.84950163   -2.24339254   -0.82840030     -1.94336479    0.34422085   -3.00306234
    1    2.33834593    0.71440156    6.85964947      3.05670044    0.70026395   -1.15702014      0.90786233   -1.67085948    7.99210975
    1    3.34532231    0.34702948    5.78204557      3.14360156    3.09179391    0.33453341     -2.16858686    8.04287182   -1.22976835
    8   -4.19260291    4.65117996    0.85871055      5.16480839   13.78111511   -9.91177167     -0.28922705   -0.62339410    3.62535456
    1   -3.60811121    5.30988305    0.43999783     -6.86849369  -10.28944949    2.33034040     14.27793720   -2.87341355   13.91030588
    1   -3.98280396    4.75309550    1.80672584      5.80134076   -1.19790189    3.56100134     -2.58697043  -19.77065488    0.45935099
    8    5.66629910   -8.49677489    1.22971058     -3.06356334   11.10372483   15.86451636      4.05579163    1.81187306    1.15366121
    1    4.94121143   -8.67462201    1.84845774      0.08820789    5.44345179   -1.55008742      4.21332576   -5.81424178    7.22352546
    1    5.45320723   -9.09804943    0.49232586      6.68230614   -7.14558026   -5.49874222      4.28501379   16.32885992   -4.40583850
    8   -1.60260214    6.19957649    4.43015742      1.86658520    2.85179692    5.03403738     -0.10970216   -2.95165099   -2.38123056
    1   -0.84522654    5.74299531    4.82312000      1.32366703    1.19706149    0.72003521     -0.54565324    1.41708346   -8.64554475
    1   -1.73351467    6.96969845    5.00265670      2.53652806   -4.40577154   -3.18951664    -18.01044942  -22.76307948   14.62883393
    8   -1.41237024   -4.06359370   -3.35125761     -8.52497244  -11.57426988   -5.82686036      2.13713714   -0.23296664    0.88787446