 BEGIN_INFO
   #
   # This is a XCRYSDEN-Structure-File
   #
   # aimed for Visualization of geometry
   #
   # Launch as: xcrysden --xsf HICOLM.XSF
   #
   #
 END_INFO
 # estrutura final
CRYSTAL
PRIMVEC
      20.47078290       0.00000000       0.00000000
       0.00000000      20.47078290       0.00000000
       0.00000000       0.00000000      20.47078290
PRIMCOORD
  927    1
    8    4.40097752    3.19049431    2.01818047      4.87345286  -10.96768784   -0.47848104     -0.50016925   -2.44062966   -3.46649940
    1    4.89566997    3.04674968    2.85243579     -1.18505228    0.55799690   -2.00623599     22.43345273   -5.22736805   39.17867771
    1    4.20668261    4.13970454    2.08018990     -2.39671271   10.06220816   -0.12380538     -5.54373345   30.32300081    4.93923821
    8    9.13626925    7.38330270    0.75079299     -5.91384777   -5.65672707    6.54519002     -0.39739087    0.34747942    0.34128108
    1    8.38069936    6.85884074    1.09251705      3.96515287    4.63627689   -5.38410183    -11.14601937  -12.05667511    6.77995892
    1    9.90297841    6.92134651    1.15215357      0.74883129    1.18548964   -2.71913351     12.56473315  -12.22114345   10.22268524
    8    9.64544356    9.98992392    6.86886075     17.05848560   -8.31339961  -23.48927760     -4.48614060    9.96705473   -2.22142450
    1    9.70198677   -9.82681173    6.12924446     -0.61603372   -3.33944846    6.44513603     -1.61905708  -95.80999232   90.71280588
    1    9.00848730  -10.07375923    7.45221473    -18.33319176   13.63904268   13.77392926     70.52123623  -52.91492649  -60.74949623
    8   -1.18757831    6.60252944   -9.13313468     40.34025426  -21.73438837   47.59292371      1.08163632    0.39598945   -0.59001590
    1   -1.80035477    6.85637798   -8.38742782     12.86198494   -6.77845343  -15.38993189     -2.93297360   -0.86261960    7.08895421
    1   -0.38340295    6.18138696   -8.61856734    -52.06184164   25.79153744  -33.04675574      1.25769841   -0.50797527    3.87486001
    8   -9.01085003   -8.82169077   10.09901381     66.05665098 -148.38794634   53.11212301      1.27245035   -1.47410418   -1.72950505
    1   -8.59819625   -8.31112442    9.53552994     53.04004844   76.32271870  -78.83341593     -3.18619430   -9.67678078   15.74035906
    1   -9.72181303   -8.40765510  -10.19229247   -121.82612790   75.86369465   28.39070834      1.86457496   -2.55997352    5.40278918
    8    4.76822441   -1.45324331    7.07864949     68.85200475    4.89945484  -17.37841167      6.24234345    2.53059863   -1.42040376
    1    5.48661513   -0.71933305    7.17265337    -39.59433242  -36.91997476   -3.17415933    -60.11448155  -50.72544588   -1.71927452
    1    5.29881297   -2.19071789    6.60817410    -27.16489818   33.84839669   22.20427930    -19.73125472   21.39114934   15.12909675
    8    3.19705032    9.85847793    7.09787739    -38.86762635   62.85451704   59.99099870      5.09935553   -4.51232283   -1.83466727
    1    2.35192330   10.08314915    6.58639216     28.65369813   -6.90734345   17.36062226    -60.20983110   12.20125304  -34.15731253
    1    3.09001837   -9.99003976    7.95497897      8.67779496  -52.58525503  -73.78248630     -8.14819342   31.66704885   47.26931969
    8    3.57938803    7.49574399   -5.50767319    -39.68784263   -8.07042319   32.34651766      2.29227525    1.02289730   -1.85601903
    1    3.73619554    8.39791950   -5.21744409      3.61546175   17.63150706    7.71104299     -1.69542790   -3.71226819   -3.60748982
    1    4.15869135    7.41498677   -6.23190075     33.93404963   -6.22765522  -40.46543145    -21.48678283    1.84633785   25.08785096
    8   -2.58286863   -6.20027697    9.30247470      5.79265122  -51.55403632  -19.55988166      4.08257645    2.61608062    2.90344927
    1   -2.56528480   -5.36472595    9.70834558      1.46060179   46.18146584   23.68817470     -4.07185596  -69.03156586  -33.85346074
    1   -1.79032897   -6.63758468    9.69757739     -6.17558669    5.37946452   -3.26673078    -48.82263534   27.20111496  -26.60472271
    8   -2.17461531    1.64787100   -7.02555986    -56.06098066   66.74766770   -4.56445018      4.20705116   -4.30979776   -1.98809531
    1   -2.42911728    2.36216434   -6.30560037     18.13681916  -47.83375722  -50.05022510    -29.96461004   71.41269331   66.79879436
    1   -2.72282975    1.96192175   -7.85890465     36.52594879  -20.52882507   54.73869788    -35.89429129   23.91305824  -51.23298442
    8    1.46833674    5.19530809    4.20295460     13.11899120  -44.29677308   99.79537267     -0.52373823    0.25101710   -0.32232396
    1    1.61813277    5.81079799    3.58186168     14.32769483   67.76200978  -71.90620671      2.32869054   -0.27784663   -2.11855633
    1    0.96995187    4.56324127    3.73808466    -25.44773562  -29.21698536  -26.26093493     -2.93368054   -2.39614561   -4.09922580
    8    7.28351649   -6.01618512   -4.96761410    -23.30957833   33.50427698   21.37731016      1.98814984   -2.54533681   -1.78246692
    1    8.02900111   -6.03990737   -5.53865247     30.59353128   -3.31717571  -23.02283494    -24.12100440    2.91513245   17.61669262
    1    7.10342581   -6.92643716   -4.79886210     -4.96960804  -34.43572022    4.33643342      4.58629065   31.55748968   -5.20687107
    8   -8.86104525    8.63180644    3.08489413     20.43866183   46.27842359  -49.73307961     -0.73148176   -3.67124827    2.37306843
    1   -8.92380370    7.83291554    2.57961150     -0.83696670  -25.99732419  -17.45368240      1.16974873   31.60057957   19.70685258
    1   -9.15178672    8.35225982    3.91038015    -20.24492475  -18.79670506   62.26075205     20.26124715   16.38378590  -58.92717808
    8   -2.11357212   -8.40959290    3.04176324    -59.28705179   13.98156060  -36.78332655      1.30491938    0.10217341    0.13405335
    1   -2.74769098   -9.02479994    2.53125399     32.44874554   20.90380123   24.05441997      1.42633498   -3.20850571   -0.48152045
    1   -2.58882958   -7.51484076    2.89862815     27.18114270  -37.56449771   10.73329083      5.23439840   -6.44090820    3.09672364
    8   -1.44883354    4.22418765    6.60434794    -14.09355238   10.73703320    2.31079948      2.67078783    0.71849561    3.20113420
    1   -1.17521408    4.66142200    7.43534039     -1.93836356    1.59106233    1.09296207     -8.68726289  -15.66486501  -30.46712483
    1   -0.69324735    3.65999859    6.42078552     14.13947995  -11.49414310   -4.36684607    -15.46727973   13.61461975    6.23842924
    8    2.72474685    1.06531656    1.68261946    -24.58317933  -29.06323593   66.83787795     -1.31130315   -1.44075983    1.64287978
    1    3.29500290    1.80332702    1.77672406     28.01059840   35.47717304    1.12721092     17.37519654   18.90095107   -1.03914553
    1    2.66139782    0.95905619    0.77533545     -2.83960625   -6.31080650  -67.07097213      1.75115844    0.70980273  -14.96511433
    8    2.08421130    1.84331388   -7.73668560    -49.95377553    4.61687755   51.12806990      1.61891808   -0.26313879   -0.46033417
    1    1.42143024    1.12041359   -7.42052796     37.46281822   40.34124204  -17.97776521     -7.26394432   -8.51118566    3.33939030
    1    1.79935888    2.63231309   -7.13859011     16.17841572  -44.01012427  -33.35104023     -6.54403630   20.75152869   14.89228791
    8    6.04678896    0.23273789   -7.69498045     27.90741153  -42.85408938  -27.86538700      0.49616442   -2.76631917    0.22885826
    1    6.66505827   -0.33846558   -8.30531149    -38.58516489   30.45284419   38.73329251    -15.80547776   20.88127148   16.08228132
    1    5.55146129   -0.47063137   -7.19285585     12.07398318   12.34339750  -11.32290376     11.73706476   23.20238486  -11.06273322
    8   -0.29543436   -7.14185489  -10.04486327     65.65298655  -91.89717287   -6.78682797      0.41901064    1.99120407    0.45259631
    1    0.61171763   -6.81980410   -9.72214983    -38.83907721   -6.35830096  -11.64985018    -14.07524429    0.54851734   -2.98238195
    1   -0.06651355   -8.16518784   10.18115198    -28.16436115   96.08785604   22.87140586     -2.98190053   11.62408600    3.86183875
    8   -3.89428857   -0.29896008   -2.22147307     83.90557961  -91.68339127  -31.89892904     -0.42112484    1.57780538    1.60219859
    1   -3.90454477   -1.00931666   -3.02645221      2.74791778   67.57194148   78.14097327      6.51534418  -26.51523297  -26.60184304
    1   -2.99258403   -0.57062782   -1.70862171    -84.91595912   24.18306240  -48.65481677     20.48827458  -10.06247143    7.63290697
    8    7.17283438   -9.52937626   -6.71613847   -125.28779123 -144.78250655 -154.08116771      2.94572399    3.11833658    4.88845071
    1    6.77429751   -9.30550401   -6.01491618    -58.36114629   47.80755368  130.50360090     27.67908600  -14.19058853  -47.64104973
    1    7.88833463   -9.19595999   -6.67621411    182.57096332   91.48606778   27.25920440    -49.76361269  -25.24327839   -5.86447442
    8    1.27401530    3.68310917   -5.87432380     20.20893787   17.93431379  116.65291494      1.48283744   -1.01081535   -3.38357948
    1    0.54678637    4.06628237   -5.21316065     56.68120216  -30.43753424  -54.51547866    -37.94091649   20.10481869   39.40539366
    1    2.10457862    3.50425483   -5.21647017    -76.62140581   16.59025161  -63.42007197     26.54278541   -4.16344838   21.92170936
    8    6.28989478   -0.43049810    2.78609842    -14.92642766   44.23978235 -129.32679079     -2.46764354    1.48958232   -5.52340499
    1    6.73361278    0.11789608    1.93382840    -49.91504240  -64.32537177  103.25871750    -25.67559924  -33.49659155   55.56736964
    1    5.37694895   -0.77897480    2.38570585     70.50318949   26.02553685   32.41277512     50.11402231   16.87860011   21.98213494
    8   -5.13254412    2.26969864    5.35839928    -35.78734753   -7.27966772    2.00690020      1.95925867    0.46176467   -1.09144065
    1   -4.80647263    2.04332561    6.23630815      7.28487031   -1.67011428   10.93935972      2.03601836   -1.29032256    0.08201309
    1   -4.33496322    2.50378823    4.90077406     27.77363983    7.82012849  -12.05370367     -9.68355458   -5.10919789    5.97985695
    8    2.34297927   -5.55640537   -2.91604121    -57.80036630  -24.12628532   17.07693379     -0.84255349    1.37161067   -1.94774003
    1    2.02576680   -5.27857291   -3.80613200      3.95201918   -2.64355693    7.52661810      8.62797074   -9.07501844   21.63294988
    1    1.47999044   -5.95381178   -2.49397459     53.77713460   23.60383476  -24.37472949      0.97714354   -0.32291825   -0.59659119
    8   -3.72766017    2.34558015   -9.10399608     17.70172616   23.35610096  -29.41077118     -0.88298372    0.07296541    1.91695566
    1   -4.00144953    1.58230934   -9.65097922     -0.21284071    2.61709833    0.35828972     -7.11797456  -19.94374080  -11.77899964
    1   -3.39905954    3.01077557   -9.80226291    -15.64792055  -26.19458546   27.19958952      2.61881427    7.51044187   -8.34669215
    8   -1.18210121    7.69330957    3.64654628    -17.51931637    6.19101638  -30.26119488     -0.19774177   -0.76303979    1.04987656
    1   -0.87098057    8.54827152    3.31222990     -0.03233811    2.33645359   -3.33860776     -3.09292089   -5.80132363    1.67563922
    1   -0.70396532    7.59242245    4.44179003     19.49963499   -5.81355840   33.33122913     -2.16304625   -1.29341529   -1.69407501
    8   -8.96330396   -5.63774873   -2.12349367    -19.55232405  -49.96665606   -5.66748345      0.09232858    1.96635652    0.72167298
    1   -9.09769082   -4.90496988   -1.52100294     -3.86032302   21.24649833   17.80233278      2.01682768  -10.37538251   -8.00046836
    1   -9.60017864   -6.32834958   -1.73690989     21.39954410   22.43386063  -12.23818764     18.45702389   16.29047526   -7.12626883
    8    2.51975820    6.07250175   -9.80655004     23.75347731  -81.79686095  128.45528576      3.81649351   -5.54317852    7.33608645
    1    3.45684009    5.60963693   -9.52709875    -90.97949625   47.31677421  -31.61699214   -108.01291174   59.59907826  -40.07758285
    1    1.87045633    5.77409365   -8.97534748     68.44779003   35.42503646  -93.50017755     49.07637587   32.95339228  -73.16564815
    8   -1.55801022    8.66266037    9.61938443      8.11569561   -4.69155856    7.48932250      1.37436079   -1.05969330    0.11042676
    1   -2.48202664    8.79906653    9.89981440     -2.60406253   -0.23477454    1.09049381    -14.41249227    2.93742579   -0.35199845
    1   -1.28121029    7.92905397   10.22055488     -3.59238920    7.90538435   -7.40801655      5.74777747   -8.01752076    1.14988956
    8   -3.37190410   -2.10355000   -4.21534822     62.04951343   51.74984275  -76.10874789     -2.12737099   -2.10641074    1.98272428
    1   -2.33562598   -2.06215320   -4.03721383    -78.89169107   -2.26721249  -15.40833450     25.37649023    2.29961177    5.18474880
    1   -3.46703694   -1.61326845   -5.17398651     12.68641741  -48.47657712   95.19232156     -6.05585093   21.98792055  -43.45606030
    8   -8.47290090    2.78846514   -7.72840452    -75.98139192  -45.82087275  -37.42960289      1.55903187    0.87368663    1.88187119
    1   -7.59920349    2.96897340   -7.77884027     88.04120142   19.40792005   -4.52314576     -2.34405026   -0.10474204    2.53538496
    1   -8.74638018    3.30235858   -7.00814363    -14.74040433   31.83330219   42.60319817      2.82137477   -7.46328380  -13.34999876
    8   -2.85221098    5.67699029    3.16404322    -56.54043187  -31.80415746   32.04845606     -1.76342254    0.45495674    0.61454042
    1   -2.27560050    6.38739208    3.30826216     38.94660874   46.87641334    8.77572489      8.63054738    9.83340172   -0.25675662
    1   -2.54920829    5.31623891    2.35621209     15.60856528  -15.41075879  -40.03312106      5.78701139   -4.09360677  -15.24623927
    8   -4.53462615    5.28605241   -6.31659646     19.75173979  -48.68996587   -7.66258487      0.03468845   -4.78126978    0.35354267
    1   -3.87466021    5.87050684   -6.68306066     14.70802054   14.88385249   -9.61126639     43.57040862   41.84435414  -22.84242675
    1   -5.14615042    5.88927340   -5.94978740    -31.67383331   31.24690695   17.52835806    -33.49507565   39.19197883   23.46509244
    8   -0.99877636    8.98451319    6.98857083    -41.60412722  145.36944557  -58.40236322      0.70780791   -1.67926672   -1.01718226
    1   -1.16849897    8.83965304    7.84333087    -17.36361034  -23.60588963   99.57087837      2.04396595    1.11629703    5.88042546
    1   -0.62589466    8.26952202    6.71649713     59.75331744 -119.33452522  -36.76257918    -10.62703380   16.39700477    6.86450665
    8   -9.11005991    6.20580535    1.81893628    -26.21673547   14.48626557    3.69742785     -0.81322663   -0.31611105   -0.82713457
    1   -8.28723188    6.22254255    1.34330273     23.60446343    2.02961048  -16.00159300     -3.33820632   -2.97882725    4.74460986
    1   -9.00536640    5.41463942    2.34981412     -0.32951318  -16.33637940   11.83119335      0.74845719    5.16221387   -4.13738913
    8   -3.99410766    8.79719932   -9.67553355     -7.95025164   13.97422007   26.31213491      0.75600853   -1.42039502    0.24983196
    1   -4.42533149    9.65773257   -9.91781984      6.75989143  -14.51886985    5.93452254     -9.61028757   17.97556373   -5.73524876
    1   -4.01494588    8.83232777   -8.67476133     -0.72512175    1.20817126  -31.42097745      0.45200206   -0.30714977   16.15081347
    8   -8.92281439    9.40570993    8.64377301     45.33715231 -112.19079663  -48.11045712     -4.85983678    6.47637421   -0.03576010
    1   -9.62571139    9.53946471    8.03327960    -32.01144224   10.51941671  -23.46189781     84.66244257  -17.30597735   70.33349244
    1   -8.99405013   10.06743921    9.19531168    -16.33229387   95.24196775   73.98475681      9.99035995  -60.03520321  -48.94821441
    8    0.73388058   -0.91832449    4.46695717     -4.40758735  -10.04094708   -1.85569029      0.40863079   -0.01373881    0.36138742
    1    0.72900195   -0.05590376    4.04989517     -1.75904571   12.75939335   -7.44633280     -0.95618518   -6.57759380    3.36418928
    1    1.36708943   -0.78177520    5.18206534      8.30810972   -0.69341507   11.30401531    -14.21009610   -1.84990740  -15.60401299
    8   -4.52781177   -9.19377231    6.40977956     63.63602955  104.07371149  -20.50223614     -2.15773008   -1.75963612    0.48247225
    1   -5.28416138   -9.55482894    6.67739353    -86.47432032  -52.41904927   30.03277717     55.68374072   25.34067009  -21.28904792
    1   -4.00309264   -9.91384827    6.18136772     26.01082429  -50.92541320  -11.55398593    -12.28683937   21.08833006    5.66703386
    8    0.46586427   -3.93470745   -9.00891362      9.58219338    2.94072208    3.07938887      1.05825039   -1.35759349   -0.01070511
    1    0.74465027   -3.28958003   -8.32442007     -3.46147338    2.22107204   -1.75044231     -8.99371056  -19.70960567  -17.22329002
    1    1.00083810   -4.71553905   -8.78568925     -1.18666973   -4.17664588   -1.89132513    -23.62564079   29.51401214   -8.78392904
    8    1.97557386   -4.78637671    5.54668548    -11.55818883    5.69368987    6.08406553     -0.60636212    0.14653561   -0.40851512
    1    2.52898101   -4.84469888    6.35689410     -7.00406906    2.25352923   -3.45841257      3.11593871   -0.17695874    6.99318064
    1    1.12211569   -4.40931378    5.88586258     18.35939924   -7.19333145   -2.71791804      4.83239523   -1.37141854    0.22540380
    8    4.89580286    1.72654937    9.07236824    -32.57050222   -0.37148128   -6.32774095      1.17977540   -1.05315862   -0.82284723
    1    5.42757362    1.20780107    8.46519871      9.95540005  -10.52700105  -12.86054853    -10.10317476    5.36232201    5.48428045
    1    5.55450654    2.05117264    9.66811434     20.71358669   11.87152552   19.81207898     -2.58581536    3.96838000   -0.46509238
    8    8.78657517    1.48740493   -4.10964847    -20.34686665   -0.90987632  -25.01797007     -2.16323454    0.95780207   -1.95165379
    1    8.38903845    1.62991059   -5.03408249     15.11302557   -4.12053318   31.08878252     13.07800655   -7.08825035   46.19873630
    1    8.03697606    1.03411178   -3.64271612     10.16556499    5.81107317   -4.92282282      7.52047514    4.10598331  -11.77280585
    8   -9.78085333    7.94858755    5.46788705    -34.66174531   27.52775484 -117.69396620      0.32141772    0.15766588    2.96511934
    1  -10.08964666    8.63662328    5.99933345    -17.35222971   43.98083266   38.81984301     13.06463376  -32.97492819  -31.21838561
    1   -9.40491605    7.40763336    6.02623338     52.37349921  -73.16626006   81.82297908     -7.84078603    6.52312129  -14.02221340
    8   -8.44857622   -2.65587418   -8.83819431     20.72481115   12.65564653  -15.12251942      2.02306159    1.14956700   -0.19620270
    1   -7.69999371   -2.31939193   -9.41752894    -20.11447187  -11.77616884    8.93401584     -6.56696244   -6.01852115    8.84984573
    1   -8.18141870   -2.26255835   -7.98777862     -4.12282201   -1.82954244    4.41114701     -1.08893891   -8.23488169  -17.20085513
    8   -7.73559028    4.02651270   -3.55163376    -19.80968796   66.29627890  -48.89144646      0.05300943   -0.57978959    0.61481085
    1   -8.30348950    4.24834005   -4.39995920     37.41897264  -19.23638860   57.04912256      1.66367184    4.20091184    1.07653449
    1   -7.31204601    4.93560050   -3.33728747    -20.50550543  -49.68280236   -8.57357932     -0.54995882    2.86333608    0.56604611
    8    6.22285996   -8.53296429   -4.38263706     31.04449379   51.71022980  -77.37803650     -1.26600153   -0.06580872    1.96123651
    1    5.54027923   -8.05653388   -3.97293101    -39.97880927   25.71426579   24.60905514     20.43976981  -16.63611992  -11.88377762
    1    6.29883849   -9.24076887   -3.85620791      7.91065039  -74.08431409   55.60013976     -5.23037551   29.64664700  -24.37818375
    8    3.58124052   -2.35419327   -8.76393410    -22.64794097   17.95125173   41.57577381      0.94325631   -0.28980978    0.86716775
    1    2.65476789   -2.12234432   -8.40419293     41.42087024  -11.40846529  -17.84088743     -7.26383288    4.37166365    3.53142178
    1    4.15009505   -2.16359110   -7.95682193    -15.63774187   -5.78105990  -24.08137527      1.84300958    2.41670486    1.60798835
    8  -10.19134156   -3.89344055    5.98322779     -8.70317788  -18.37229794   16.17796527     -1.59453441    3.03414655   -5.08615343
    1    9.69861672   -4.57481606    6.43605364     15.33153430   17.26068087  -11.94308828    -36.93012586  -43.77513246   28.92947618
    1   -9.37916409   -3.90213611    6.54279162     -6.94422764    0.11902043   -5.34438063     59.39619346   -2.87674680   43.19911273
    8   -0.81769313   -1.41713684   -3.51376902    -13.48194822   61.09430403   61.63793831      1.17838555    1.38175384    1.35242009
    1   -0.73751851   -0.40384483   -3.69865289     -3.47257056  -57.88243924    8.05025417     -1.89254693  -12.60031450    1.55542110
    1   -1.05731843   -1.42272519   -2.49065447     17.52210855   -2.06946258  -70.55371715      3.89923010    2.06314360  -24.19076777
    8    0.15439156   -6.67505840   -1.85010396   -155.35721439   75.31650470    6.21709597      7.19794152   -2.33721720    0.62775998
    1   -0.55225458   -6.60712169   -2.68478513     81.22532582   -7.81204307   93.25970922    -59.92297371    5.87470680  -66.71153506
    1   -0.41172420   -6.15604941   -1.05003587     70.39314193  -63.62529186  -98.53471147    -40.01248788   35.68476263   52.05888047
    8    2.84317719    7.95107006   -0.51206663     60.04244373   96.89810259  -25.77091668      0.32266788    1.51659004    0.02239100
    1    1.99881539    7.80943494   -0.25614037    -85.21429763  -21.69480199   27.20381867    -31.44923958   -5.77155938   10.45875812
    1    3.19906934    7.12441279   -0.56851657     24.66940768  -74.96339329   -1.94538957      6.27515927  -15.60896376   -2.04331332
    8    0.57800955    5.79470975   -2.10809790    -31.04859576    1.02461615   53.82552750      0.42436171    0.98009941    0.87879233
    1   -0.01918678    5.46385200   -2.75465269    -23.95496429  -13.09700215  -23.10184545    -29.23716932  -14.19852223  -30.00060067
    1    1.33458579    5.94509961   -2.60569771     52.45203071   10.71654577  -32.25973765     23.53430605    4.17879032   -8.29513888
    8   -0.42361184   -7.75309566    5.08031719     32.15368800  -22.95081391  -18.54412618     -1.78300098    1.47204133    1.85875827
    1   -1.08630090   -7.99997591    4.41897676     -9.81742111   -2.57193341   -7.17045402     -4.08417705    2.58095635    0.54095443
    1   -0.88862612   -7.17128322    5.64935362    -23.13400992   25.48749931   25.96833599      9.16162549  -12.72404562  -12.47172697
    8    6.62307644   -7.88305756    2.95790767     94.55645603   -2.75049564   36.95993169     -0.11818550   -0.05590243   -0.78167733
    1    5.86431105   -7.78947872    3.46289781    -60.98350936    6.51431681   32.70335452     -2.09361445    2.15346798    1.87084547
    1    6.31589251   -7.97279921    2.11166904    -32.43760011   -6.75899230  -71.92244183     -0.53269583    0.50593757   -4.22994160
    8    8.78677141    1.59443112    8.47563878     75.69059942 -317.25427854 -124.23648211     -0.70633180   -0.40702752    1.36447068
    1    8.32187615    1.80209844    8.99679593   -163.68830420   98.02400543  190.41264190     11.86335927   -3.18431523  -16.29454429
    1    9.11281685    2.22762402    8.20268462     89.89905133  206.22413781  -70.44392739      2.38906135    6.78402777   -1.33234967
    8    3.50981598    3.38739678   -4.35906233     34.72573131  -12.79233424   -8.98433819     -3.80520063    2.73043049   -1.01368982
    1    4.33704209    3.50216414   -4.93379920    -29.25493553   -3.96967237   22.91483066     22.04164448    5.62071462  -15.79491646
    1    3.82962890    2.76630627   -3.64247557     -5.86546426   15.69554443  -16.12102840      9.98412256  -25.47627011   32.07171889
    8    6.54770360   -8.05341821   -8.87417688     67.62800249  136.06119127 -109.36890216     -0.53686088   -1.52590589    1.48816743
    1    6.71270181   -8.48693728   -8.19758368     30.32906431  -91.34947390  137.65196719    -10.98581519   33.79765901  -48.85690575
    1    5.78653834   -8.37851496   -9.13967963   -100.78204310  -45.69763264  -32.68267405     24.37503344    9.57047617    5.72782390
    8   -4.61695772    0.43985342    9.59308636    -51.83813517   56.01005213   32.81317938     -0.25935921   -0.04313399    0.38957262
    1   -4.14818620   -0.34285607    9.53275450     39.88576500  -64.81420937   -6.89771121      4.14489490  -10.99495866    3.33575342
    1   -4.31616952    0.91317693    8.82047743      9.77953386   12.43428604  -22.75821212      3.41690917    8.49610574   -8.95130113
    8    5.03812662   -2.00971892   -6.49914265     -4.83225513   20.30195205   11.51698411      0.69883318   -2.72292362   -0.23521294
    1    5.08469126   -1.83348808   -5.52228325      0.26021031   -4.83604847  -14.87571255      0.91253268   -4.98952016  -16.69917182
    1    5.24477368   -2.95282235   -6.54361293      3.49867982  -13.38170731    2.29910042     -7.19434105   35.71788624    9.02935491
    8    5.71914196    8.87739606    2.31379682      2.08418436   -5.40643378  -65.16043370     -0.76033244   -1.42765672   -2.99551367
    1    5.16855722    8.57459653    2.99427816    -32.32195357  -16.60436104   41.99055917    -11.82380900   -6.30131966   11.39976766
    1    6.37353678    9.35923982    2.77806155     29.95490498   23.48459038   23.43565389     21.51471901   14.66752278   14.46408364
    8    0.36787744   -8.90154289   -6.67580984    -60.89516752   38.09324392   16.40693901     -3.82708558    1.91245065    3.19363220
    1    1.27151593   -8.80039030   -6.58809330     66.25432122   12.17677132    9.88548710     32.23022426    4.03247707    5.86782991
    1    0.34131157   -9.66278738   -7.20557063     -6.38244566  -45.26561987  -30.59518668     -4.62500025  -35.13041359  -25.51360498
    8   -0.79460886    4.87150414   -4.36936923    -29.12798449  -48.87286278  -13.67725831      7.49899267   -0.26633226    2.63109055
    1   -1.18334391    5.74953560   -4.41661781     -6.58560524   15.72532114   -0.77081083    -36.01996880   71.07107541   -5.04644639
    1   -1.58970317    4.27772885   -4.62747327     38.78196242   28.94104177   12.45370935    -82.25989236  -55.46476232  -24.87796367
    8    4.69367703    2.58106911   -8.13770065    -32.56644419  -67.20722152   10.23136737     -0.85950612   -1.39258141    0.99863459
    1    5.22449523    1.69708792   -8.11694416    -29.58312917   47.65172428   -0.16841317    -16.77294209   22.51075099   -0.29037355
    1    3.71714326    2.25729955   -7.99680768     59.77144879   20.28119685   -8.32114959     11.52406337    1.12503913   -0.62774752
    8    2.93976607    5.85311320   -3.46348231    -41.23051223   -1.51347902   98.17082103     -0.24941945    0.02632333    1.10059798
    1    3.11188149    5.02157819   -3.81419919     13.04888706  -57.69419261  -26.22252530      2.59429911  -20.41851153   -7.74402996
    1    3.18280750    6.40116834   -4.11631024     28.33006920   60.05529588  -73.89385925      1.28926525   -2.09463513    0.05832023
    8   -2.98322446   -3.17389368   -7.42984898    144.83295372  -53.02205855    7.82157109     -7.69485390    2.28437312   -0.15090593
    1   -3.77647070   -3.36331053   -7.62926100   -138.59113690  -37.85194450  -35.86477044    101.93987506   24.13653444   20.33707409
    1   -3.07032812   -2.33595692   -7.14653087     -4.39475451   90.76280840   31.37792846      1.80040284  -50.88597975  -14.36958174
    8    9.76076778    1.14814437    4.74254069   -137.86545402  -78.99964688    8.50265359     -4.11010134    0.00573668   -0.28862029
    1    8.64759202    1.08395486    4.80267232    140.35474817   17.51545121   -8.25827136     32.91388558    5.60681701   -1.05923345
    1    9.99687266    0.13291301    4.78780868     -8.21231962   67.97710123   -3.23252502      5.86682739   -0.04023835    0.06950047
    8    7.32598940    8.84183777   -8.45898900    -72.78292631  -34.66368299 -162.00847422     -0.63170141    0.09646449   -1.97234808
    1    7.24040937    9.53965464   -7.97987725     -9.51351999  109.36932424   81.33843960      2.06026929   -4.46117199   -2.64724216
    1    7.84733378    8.34154581   -8.00742823     83.45844494  -73.71586046   77.17208822      7.21674773   -4.85126999    4.95598458
    8   -2.87945739   -3.47718263    3.03433496     29.75895315   57.39964172   47.27711638      3.04992863    2.19302587    2.87999390
    1   -3.26658653   -2.62415325    3.49768653     28.03318003  -57.48616539  -31.43217321      8.35190917  -15.23734446   -9.13018426
    1   -1.89823616   -3.45868885    3.36337424    -56.18855038    0.78836950  -18.02588707    -43.71006581    2.62171284  -13.97097559
    8   -7.31793417   10.21695493   -8.89208163     27.34607427  -69.26691078   64.74076310     -4.01786459   -3.54477758    3.97891023
    1   -7.90999455   -9.79439813   -9.37600605    -60.90838203   49.39399009  -50.53088874    -40.25342813   39.70370409  -34.78802902
    1   -6.49188747   -9.89711666   -9.17818079     33.79107493   15.72938692  -12.47426611     47.34481442   27.76733051  -19.12581891
    8    8.55438661    4.20356037    1.42770876     34.01534483  -41.48874455   88.25491549      0.67947991   -1.58500271    2.15129156
    1    8.22723279    4.59308251    2.33354370     18.87189304  -24.08360463  -60.93733113     -1.12130425    1.68526344   -4.95238973
    1    9.16762598    3.40185350    1.74133159    -50.55461236   63.77328136  -29.04678566    -20.35141695   26.30216012  -15.00366006
    8   -7.86464439   -3.85171695    7.37812052    -58.13782173  -27.64695465   20.21066219     -4.83008750   -3.20570229    1.85680818