 BEGIN_INFO
   #
   # This is a XCRYSDEN-Structure-File
   #
   # aimed for Visualization of geometry
   #
   # Launch as: xcrysden --xsf HICOLM.XSF
   #
   #
 END_INFO
 # estrutura final
CRYSTAL
PRIMVEC
      20.44977200       0.00000000       0.00000000
       0.00000000      20.44977200       0.00000000
       0.00000000       0.00000000      20.44977200
PRIMCOORD
  927    1
    8    4.40387875    3.16630719    2.02390697      3.02079068  -76.53140171  -23.56978959      1.14935741   -0.50294705    1.77631505
    1    4.89225872    3.02406636    2.83084527     13.52336604   -2.52619461   22.43440098    -12.62755006    5.46964915  -17.22359750
    1    4.21081197    4.04596893    2.08711041    -17.21701136   79.31192626    4.74417943     -3.48332733   19.55387184    3.60587597
    8    9.12656381    7.39782614    0.76855337     10.85505569  -75.87195431   51.46226697      0.38511692    2.24783344   -1.66604671
    1    8.30873108    6.83931051    1.07433941     53.53012272   35.02790129  -19.36727005    -27.27721607  -23.27624778   14.36934593
    1    9.94401004    6.86722709    1.18623834    -65.46511690   41.93697502  -31.75765446     35.07707821  -26.28559011   21.41542446
    8    9.64310868    9.96915244    6.85663674     11.54558369  -65.36837410   43.26945962     -4.74551837   10.09724617   -1.60670364
    1    9.73754840   -9.87424254    6.18432898      7.85558134   52.37454957  -58.02943499    -14.78119030  -95.46333779  108.28427746
    1    9.01186775  -10.04834970    7.41875971    -22.94045803   14.14161484   19.59167463     87.25126698  -63.89792607  -78.43845268
    8   -1.20685524    6.56245978   -9.11536118     28.36873539  -23.94002210   74.73403301     -2.37141189    1.07762831   -1.30661815
    1   -1.82765174    6.78881287   -8.33765419     24.40957281   -7.30046215  -37.55500747     -6.56687788    3.91058253    9.96064028
    1   -0.40051468    6.13842245   -8.59801091    -51.38819327   28.30845979  -39.56817825     43.52806258  -23.47238931   27.72861827
    8   -8.96799291   -8.81366439   10.15166461    -22.55124969   87.05837573  -37.30262847     -1.56383708    2.24713864   -0.90574088
    1   -8.49182185   -8.16597472    9.47665921    -30.93331355  -48.69202069   46.56810012    -12.88317714  -15.58269060   20.08881624
    1   -9.84074094   -8.29597678  -10.07991298     50.61948641  -33.62972742  -11.00468010     38.38479826  -20.74251512   -4.72566525
    8    4.76313685   -1.48476667    7.07005660    -20.87113871   30.88733207   22.61694997     -4.56203132    0.12654562    2.24467144
    1    5.43363114   -0.77373277    7.16676945     -0.84807368   -0.23089823    0.35516573     46.91345238   51.74763288    3.85748178
    1    5.24075685   -2.14361614    6.60803888     22.36581058  -31.27413646  -22.23248001     33.30062201  -42.79301923  -31.86715204
    8    3.13837546    9.82532042    7.16046910    135.39694203 -106.37677816   -0.33797507     -8.92304711    6.19525516   -0.92123513
    1    2.46899199   10.04423150    6.70590644   -122.47018428   40.77434849  -80.01424961    136.92349957  -45.32508803   90.91502270
    1    3.07925404  -10.08510062    7.86024677     -9.14774407   61.78599786   79.86890075      9.64989518  -61.18885187  -77.02361016
    8    3.57013016    7.49332000   -5.42473276     83.84073734   67.70592630  -56.72779910      0.49991946    1.71566650    1.46123739
    1    3.77636589    8.46419359   -5.06366261    -16.29318661  -74.69164504  -29.87450468     -5.97987426  -25.56341091  -12.69982084
    1    4.26122300    7.39555778   -6.25388250    -69.97055249   11.59863267   81.98107281      1.78053695    4.57892776   -1.11619085
    8   -2.52885870   -6.18782827    9.24969636    213.57552247   56.62216052  185.69229251      0.65893478   -3.35763544   -2.06582028
    1   -2.53936189   -5.16931801    9.79987670      2.50222338 -165.53459719  -92.03638270      0.10574060   21.26937771   14.67265986
    1   -1.54269013   -6.70069541    9.76100112   -202.22962636  107.71284914 -106.34279923    -12.19556718    5.33834666   -3.24349659
    8   -2.21158296    1.61499065   -7.04658692   -115.74933685  138.85224137  -77.11198718     -4.29644679    5.77107294   -0.92787056
    1   -2.49561670    2.38917590   -6.35890125     30.26810111  -78.23550859  -58.30120227     24.85930108  -57.06318099  -45.87328672
    1   -2.75597293    1.98523575   -7.98253519     80.95761998  -63.45879699  135.48147882     37.11240709  -25.77496720   55.28644408
    8    1.47693410    5.16799405    4.23198465     -2.43910153  -14.85027140   10.74842595     -0.49406041    1.49603076   -3.60329239
    1    1.63853406    5.81522361    3.54396661      6.10220952   19.12852901  -12.28761446    -10.57631316  -32.93746370   32.66704407
    1    0.93323796    4.53742669    3.73119872     -2.76260308   -5.16093841    3.40256253     18.27213863   24.14968584   15.39577775
    8    7.26751738   -5.98079203   -4.95892473     39.78186308  -55.65913457  -28.47896482      0.82396467   -2.10997095   -0.41253855
    1    8.09291033   -6.03609285   -5.55852488    -39.96901738   13.84771052   28.49160575    -15.07444436   -3.03503620   12.81623741
    1    7.11071379   -6.96720945   -4.77099567     -2.37092774   44.50118882   -2.13391822      7.30381978   24.11502206   -6.78643394
    8   -8.80796696    8.61597829    3.10054542      0.50460570   -8.37753537    3.59403737     -2.43101175   -3.78874102    5.26006158
    1   -8.89302571    7.77228352    2.60085136     -0.40350766    6.10829891    5.64893146      2.46110511   32.06775563   14.64744027
    1   -9.11071079    8.35835393    4.00509937      0.86872024   -0.34617618   -7.71897426     33.89804522   32.22828376  -99.19003349
    8   -2.12837343   -8.40257898    3.06021970    -40.53135989   16.66573053  -17.55611891     -6.26767375    1.63418312   -3.68806663
    1   -2.74692153   -9.04002560    2.57402529     20.52337376   26.62560041   14.93746090     55.08718237   39.27146946   39.08865196
    1   -2.57869767   -7.49595775    2.91763936     18.04666920  -41.71755187    2.27947580     41.31068708  -68.87802053   16.59360374
    8   -1.48104479    4.19617719    6.60413759    -88.87124480   34.67944325  -26.02025306      2.13832596   -1.09580281    0.52504912
    1   -1.24848180    4.59769629    7.41085079     16.64300019   20.49896983   43.81958817     -4.85192976   -7.22343865  -14.41852880
    1   -0.78063025    3.66972760    6.42700365     72.70959340  -51.41462412  -14.88346788    -29.92222557   21.47059240    6.50660989
    8    2.72494545    1.06460476    1.69865990    -32.27920594  -37.37289753   95.75017584     -0.57124817   -0.24443103   -0.41332460
    1    3.29870198    1.78270945    1.77615787     38.05436947   48.30364238    2.79376832      3.64291663    1.68616427    1.63160686
    1    2.68262886    0.92926430    0.82626645     -3.69294329  -12.87654982  -99.45404348      1.42376507   -1.59913309    2.80519654
    8    2.09423306    1.85584417   -7.82724083     30.03619490  -14.31888126  -27.80548048     -0.05394940   -1.35949746   -0.34705578
    1    1.48755725    1.19979602   -7.51057043    -17.02988079  -24.58768731    6.15959670     10.66237738   13.01378261   -3.88634952
    1    1.83342211    2.57548742   -7.30335405    -10.88067823   42.24631265   26.11537871     -7.06213840   13.81979495    9.05506206
    8    6.03483889    0.26461429   -7.69955852    -29.24584527   28.55949081   34.43910483     -0.24679306    1.10543086    0.22436194
    1    6.56467616   -0.28050700   -8.23284999     31.07573209  -28.76507737  -33.84561243     17.15497650  -15.97438184  -16.57111134
    1    5.54333126   -0.41167757   -7.18918219     -1.16550316    3.00908471   -0.10710933     -4.73354635   -6.52547933    3.03407678
    8   -0.30246187   -7.09146854  -10.05035638    194.46087737 -108.57515138   30.01325515      1.38557371   -0.83709415    0.03897045
    1    0.70770051   -6.73882212   -9.66683389   -152.45475415  -41.63255998  -53.92347854    -30.17487991  -12.96665828   -9.42550290
    1   -0.04348522   -8.17089851   10.19771619    -45.96179735  147.91984087   24.62766549     -8.12759362   35.76850297    7.54551364
    8   -3.93916116   -0.27830584   -2.20931000    -28.26851379   21.25524302   -2.03549191     -0.99207374    0.01903383   -0.46641319
    1   -3.95087851   -0.92088793   -2.92486602      2.84022349  -11.64835782  -11.18833193     -0.90652102   -6.70553954   -1.52254095
    1   -3.12656877   -0.48178155   -1.76345075     25.76270928   -8.43973924   11.67468612     10.74896694   -5.67549655    9.46441345
    8    7.15139846   -9.43632970   -6.68699140     83.65925748   53.99761508   56.79276239      5.03411012    4.68886846    4.92040461
    1    6.71120481   -9.16990848   -5.80041002     17.83668600  -13.00900234  -45.30742525     30.46681639  -19.97291394  -65.91467251
    1    8.15302608   -9.03393206   -6.54090260    -99.99003766  -39.83526943  -18.17816035    -91.28190859  -39.00108312  -20.50554333
    8    1.31037229    3.68996023   -5.91110492    -17.85654055    8.15347450    4.10101911     -2.44131948   -0.05550901   -8.01648511
    1    0.59206695    3.97140998   -5.28923077     11.25291217   -4.87522242   -8.56437254    -43.94491354   18.89186523   41.83829579
    1    2.06624063    3.53067175   -5.31711689      3.68511485   -0.53419028    2.90794553     74.63792079  -16.50358228   67.64546728
    8    6.31221546   -0.46610194    2.78905308    -11.90038754  -14.46549490   29.14511374      3.43828462   -1.36970337    7.62335250
    1    6.69184077    0.03296817    2.07009736      6.82907077   12.94505722  -24.75402148     32.49068746   50.95213862  -75.25646960
    1    5.43368679   -0.75667707    2.44715021      6.77596957    2.94813054   -2.25015139    -88.29935301  -27.59798870  -34.91058193
    8   -5.16707708    2.21080862    5.35175949    -24.76872781   -4.86049855    3.45250440      1.04487381    0.64220027   -0.26527816
    1   -4.83811416    1.98466099    6.23079049      3.46266555   -2.19418218    9.28594240     -1.29303851    0.56854942    1.83018881
    1   -4.36535947    2.48683843    4.91416954     21.47998790    6.84237653  -12.15707870    -12.21379466   -2.67791877    6.46490593
    8    2.34318171   -5.54910069   -2.94726024    -68.02723103  -57.59047780   67.55842481     -2.65070161   -0.19826722    0.30443337
    1    2.01233433   -5.29070759   -3.80465087     -9.40334624    7.55512831  -20.25941954      4.03138568   -3.29899966    4.41826497
    1    1.48381812   -6.00444020   -2.49002717     77.73385548   44.89009191  -42.95782051     32.97223449   18.48445319  -20.16896535
    8   -3.71171958    2.31641381   -9.10601160      7.91253079   17.82372285 -238.99782664      0.15875999   -1.09862346   -0.26040653
    1   -4.05047817    1.44863480   -9.75232368     47.77252711  125.42993991   93.90155402      9.69514514   25.05624232    9.63694715
    1   -3.40530320    3.11898789   -9.90983456    -54.75729640 -140.29959015  139.37274308     -5.60383780  -14.34885187    8.14233130
    8   -1.17656766    7.63190571    3.67639636     22.57471488   28.32182494   12.36158148      2.03975218    2.61296073    0.88196521
    1   -0.88230990    8.52189959    3.31975912     -9.58272676  -30.28926777   11.51009942    -15.41576000  -46.79291840   19.16055010
    1   -0.66829721    7.54455862    4.52917958    -13.62037424    1.81258537  -24.12290861    -20.84085726    4.66143117  -36.27568376
    8   -8.92826463   -5.65192793   -2.14156107   -156.94508427  -12.76912821  209.20110022      5.42230402    0.76478741   -5.95379798
    1   -9.10265236   -4.78888294   -1.38928000     27.98760364 -134.02724803 -120.81166791    -18.52308798   54.54496465   51.71608070
    1   -9.64020219   -6.47561742   -1.68051651    124.68187181  145.25367659  -81.66788439    -54.33521310  -56.22672930   33.10972008
    8    2.55830256    6.12564106   -9.79413287     -4.71008926  -41.08423952   58.88835109      1.28003962    4.00898078   -4.62647325
    1    3.43783501    5.67817453   -9.54359649    -33.78774892   19.42242236  -11.68987434     39.11874978  -22.81264327   13.32497231
    1    1.92698818    5.80616717   -9.03020762     37.30020022   22.63684045  -46.60557330    -48.03241553  -29.10214170   59.75169595
    8   -1.54653732    8.66918455    9.61632011     52.32394686   22.13987113  -41.40544362     -1.58697820    0.17301181    0.25566588
    1   -2.40771148    8.80170901    9.88995982    -63.76518741    9.64687058   20.99917535     38.23294780   -2.88402339  -11.11351554
    1   -1.28159259    7.95706463   10.16546434     11.52642385  -31.32822183   24.95041897     -1.63337235   14.31172439   -8.09530631
    8   -3.38434446   -2.04923999   -4.18014135    -12.01545699   14.05099272  -34.66201831     -1.49538320    0.06467668    0.17767426
    1   -2.42613619   -1.96786862   -4.01454255     -0.00701052    2.00220939   -4.75027968     10.77040956   -1.41725387    2.67470999
    1   -3.50304299   -1.59542091   -5.08538002      9.73961224  -17.33992190   37.47437075      1.64997797   -3.23386722    2.96677844
    8   -8.57107605    2.85598898   -7.78544715     81.52192460   58.29792422   53.72654690     -1.00367600   -1.15590970   -0.56924157
    1   -7.52400634    3.04948042   -7.87924860    -94.00312938  -18.64633002    7.81601067     18.74281314    3.69775213   -3.10082243
    1   -8.81520469    3.44358045   -6.95168995     14.68192025  -42.10936082  -59.77786743     -3.92802932    9.99102153   13.80663682
    8   -2.90968888    5.66901457    3.20727571     60.99204029   36.40390719  -43.65076069      5.14502415    3.88478219   -2.42254086
    1   -2.24634905    6.46409847    3.38012974    -42.88303937  -52.95751456  -10.38572086    -61.42859589  -72.61287521  -15.52252994
    1   -2.57392546    5.29732121    2.30273113    -20.88424678   18.87324623   53.45762855    -21.90910338   18.72138981   53.78952414
    8   -4.70868047    5.31567504   -6.45831738    -12.28010046   63.86836363   11.95022634      0.35777018   -2.00954379   -0.11145525
    1   -3.97352859    5.91035285   -6.80339807    -24.01003183  -20.83548084   11.79533300     10.25842593    9.55409615   -6.57444207
    1   -5.35486473    6.01022379   -6.04607359     36.31103835  -40.64216516  -22.44939719    -12.90565673   12.44622989    5.60751395
    8   -0.93386381    9.00309513    7.03218459    -42.88298257  169.70497098 -109.46861835      1.07764052   -6.51408307    2.84026604
    1   -1.11635170    8.85569507    7.82859000    -29.84390792  -37.58586783  154.09707980     17.37098111   20.78850593  -74.85980455
    1   -0.59378839    8.29357732    6.74259294     62.34786348 -133.05896562  -41.01128677    -39.19056902   81.43595275   32.65943690
    8   -9.13824262    6.20061015    1.84958270     53.42208903  -36.88384991   -7.93875689     -2.98973962    1.83904051   -0.15524759
    1   -8.25801640    6.21599416    1.31837074    -46.52601081    0.56766836   29.31781545     25.75850994   -4.53724525  -15.22003403
    1   -9.02850806    5.35262366    2.40039331     -5.06345437   36.46752460  -22.61617200      4.90905397  -20.78721945   10.26334096
    8   -3.97144306    8.78933549   -9.59260358     10.78178590  -30.97373111  -23.90589838     -1.28691703    2.61704535    1.07024302
    1   -4.40916476    9.60502126   -9.82445727    -10.73646317   23.01842492   -3.10846444     10.69171273  -18.56216873    3.80784099
    1   -3.97637392    8.81642145   -8.64738369     -0.56350575    3.67916608   27.26518903      0.26234639   -2.86947867  -19.04171379
    8   -8.89466507    9.44475455    8.69139343     -2.80227611   19.50468623   17.45522620     -0.60167465    0.09101072   -0.54769924
    1   -9.63765765    9.56559325    8.07239438     -1.29057724   -2.24668600   -2.48074096     14.48483775   -6.76440901    8.63433768
    1   -9.00916351  -10.21516366    9.30355799      4.79728888  -21.75429408  -14.75165472      3.14670235   -1.74910899    4.23791135
    8    0.75243873   -0.94819933    4.45172448    -11.66342565  -33.89608503    1.50565163     -1.17239838   -1.31709413   -0.61514619
    1    0.73113469   -0.10769621    4.03283139     -0.88071289   30.19021084  -14.47015108     -0.79254804   15.29681078   -8.85320509
    1    1.37410357   -0.80229905    5.17091259     11.02130473    2.31228731   13.12390983     18.93086795    2.66236730   20.89876425
    8   -4.45395375   -9.14614578    6.38033984      5.54859829  -14.53323069   -4.45882477      2.52565163    3.10127211   -0.37057009
    1   -5.29925196   -9.55699552    6.66374530      3.50254184    1.85984591   -0.54593777    -51.17555155  -26.73014470   14.41260177
    1   -3.91400229   -9.94712453    6.15953110    -10.05957291   14.98616000    4.32427063     14.48935914  -22.22549380   -7.21814319
    8    0.48461606   -3.88981781   -9.05393013     13.07187262  -16.86703100   20.38619493     -1.25174960    0.07393010   -0.65869773
    1    0.73156393   -3.23008759   -8.36054764     -3.22295432   -3.28825998   -7.33539996      2.42867807   16.22369050   12.54199442
    1    1.00701901   -4.69452932   -8.78003368    -13.08751591   18.46335414   -9.63400305      6.92246087  -14.75408445    2.76901678
    8    1.98232338   -4.79150554    5.54113995    -34.65886825   18.25271309   51.96129490      1.48649900   -1.11274082   -3.64795975
    1    2.52446672   -4.85960805    6.39411615    -20.26622950    2.81926116  -32.57064318     17.53278975   -0.33925617   29.84198542
    1    1.08662725   -4.41271571    5.88998758     53.71227222  -23.03721149  -21.86790795    -38.48512733   17.49241598   14.89682305
    8    4.87365808    1.72741508    9.05128860    -78.99611940    8.28141828   -5.11012739      2.55196569   -0.65718246    0.09134197
    1    5.37826716    1.21517385    8.47724680     32.90035253  -34.68128863  -37.76963495    -23.24858237   21.68947664   21.29137916
    1    5.51490562    2.09814118    9.58179129     48.30823518   28.29960818   41.72739023    -29.60526012  -13.87074877  -21.76940694
    8    8.82555296    1.44917425   -4.09962142     27.40821406   31.21256644  -57.24136364     -3.88357827   -1.67685128    0.94779854
    1    8.47045598    1.59391155   -5.03440038     12.26071865   -2.38179600   26.88984999      4.21779962    1.22895052    6.71093900
    1    8.10479148    1.02948289   -3.69784109    -42.53297326  -25.09515859   27.65112137     47.44754644   29.82702502  -24.74371092
    8   -9.79111765    7.96512168    5.51570362     13.41584378  -11.66411268   28.20188572     -0.39435967    5.32648662   14.83651719
    1  -10.13818897    8.72274431    6.06403672      7.91375885  -14.40964205   -6.67239171     67.98561571 -158.60060598 -121.90944519
    1   -9.31500234    7.38236439    6.19527643    -18.32295416   22.07368469  -23.82139622    -59.74887192   70.59625850  -94.46801846
    8   -8.44574986   -2.60463389   -8.83002314    -67.97731195  -65.17201184  -27.55097809      2.82355577    2.50892201   -0.75516707
    1   -7.77537145   -2.30661612   -9.37816535     49.66181176   20.22166490  -43.67369966    -32.35391469  -22.39433738   28.62767880
    1   -8.22336072   -2.21662400   -8.05750092     18.65336671   37.14038206   76.31514135     -2.99839032  -11.49355480  -15.09645660
    8   -7.73162984    4.02239116   -3.54969947     10.43241052  -44.51352801   32.26115186      0.00514752   -1.58242087    0.79538068
    1   -8.25298565    4.22165107   -4.29644188    -26.45541481   11.02972960  -39.91080572    -17.14673198    4.90262313  -22.18552556
    1   -7.33463489    4.84545709   -3.33823451     16.93037902   35.92613690    8.27137325     12.90477248   23.17048647    7.83623593
    8    6.23689559   -8.47746879   -4.32197393    -55.54180427   21.70371356   47.49236629     -2.40298108   -0.98098985    3.45583269
    1    5.45385212   -7.95270336   -3.84390863     60.72094246  -44.64510632  -34.47213666     27.74384119  -13.65187715  -22.88988654
    1    6.32155331   -9.29414605   -3.75515058     -5.74157375   23.50658462  -12.09537849      2.32452430   35.51779229  -30.76182788
    8    3.56580073   -2.32669478   -8.78708428      0.67704972    3.45427390   27.69469770      0.56068471    0.26593405    2.12108432
    1    2.65543767   -2.09992156   -8.47276775     14.39412199   -2.40413053   -3.89893701     10.07781239    1.40997490    0.08075005
    1    4.11812846   -2.11416025   -7.97435759    -15.80851985   -5.09347074  -21.73825610    -18.73473650   -2.67878115  -22.96055953
    8  -10.18780527   -3.91446528    5.91980101     21.57082604  135.69012846 -146.83100086     -0.24612242   -1.65358777    1.82908750
    1    9.80032907   -4.46573973    6.27613058   -107.84199694 -129.29091136   86.73488583     13.53771916   19.62091362  -17.09645723
    1   -9.45604824   -3.91812921    6.40936400     87.38815954   -2.10451174   60.58088255    -13.01930848    2.28555421  -10.23958203
    8   -0.83308125   -1.15474929   -3.56520315      3.60406844  -76.15471624 -100.85893518      0.29152430   -1.37924289   -3.16761217
    1   -0.68484139   -0.27607785   -3.69781807     12.96596441   80.13187222   -9.66634257      7.45409438   31.97122983   -3.05068159
    1   -1.00948161   -1.20142129   -2.70923304    -20.78050499   -3.80015741  110.62672060     -9.35128649   -5.23017080   54.19020652
    8    0.16181766   -6.66139708   -1.86027740   -267.17764697  137.11349608   27.89368276     -8.00132421    4.30897697    1.41984699
    1   -0.58466805   -6.60849667   -2.75112134    128.55559366   -8.65800448  147.58581468     48.63313496   -6.13605984   52.11737245
    1   -0.48597260   -6.06912612   -1.00630213    136.82113095 -123.00027011 -174.51376959     56.36862467  -50.44554834  -72.91408912
    8    2.85309609    7.96980478   -0.48776079    -22.98760041   -0.54323442    6.00954079     -2.22456623   -3.60671836    1.03988763
    1    1.91156389    7.78751932   -0.21023767     16.95046009    9.58872681   -6.15895462     44.49913528    7.35589105  -15.35200149
    1    3.20642833    7.06991470   -0.53179330      7.33987281   -5.95141943   -2.00138143    -18.96911390   33.51907569    3.93553556
    8    0.46529332    5.64696055   -2.10282537    -23.24458153    1.95607544   38.34526130      0.78089848    0.20809850   -0.29510730
    1   -0.18425840    5.23289248   -2.68722083      5.60396862   -0.96110629  -11.90683605     11.34305458    7.34121789    7.06912959
    1    1.23432899    5.80928706   -2.63558178     17.07175293   -0.06185550  -27.05117041    -18.78237716   -3.51324648    7.48865887
    8   -0.42981462   -7.78042275    5.08654956   -139.98357103   76.49060609   49.25445464     -4.17582228   -0.75614183   -2.25832119
    1   -1.17181219   -8.04992876    4.38894122     58.21895052   19.97558789   50.21783989     48.45044506   15.78881171   43.61956027
    1   -1.00448636   -7.12366536    5.80429059     83.54210349  -90.28761576 -101.04637549     10.32352573   -8.27013034   -6.54973988
    8    6.64464260   -7.94854992    2.97015688     89.64791227   -3.27067409   39.92230305     -0.58572621    0.57408711    0.52723090
    1    5.87595683   -7.84664985    3.44815474    -61.50801133    8.76744939   39.06171835      3.18846923   -4.54733342   -4.55667775
    1    6.34450303   -8.00127397    2.12653954    -28.34720083   -5.04019724  -82.10115268      0.98893802   -1.63461553    1.48676947
    8    8.78690120    1.53235475    8.46951961     -4.13162603   71.23339221    5.48942511     -0.87258043    2.60435078    0.98011168
    1    8.13878028    1.89287684    9.17046881     28.19059538  -14.21011205  -30.37475286     31.29859577  -16.42784741  -29.32729393
    1    9.21201466    2.40660559    8.10586902    -26.48344224  -51.41041858   24.47394352    -12.32784789  -32.87338495   16.78323535
    8    3.54437638    3.41554044   -4.40633983    -67.68121156   51.09977999  -49.26301973     -4.98155959    1.53561086   -0.01042420
    1    4.32120373    3.51447819   -4.91428207     39.54644297    6.74930083  -27.45587516     68.67224031    7.61721795  -45.32498350
    1    3.81602698    2.87716420   -3.76042007     29.02795576  -62.13106827   75.07040793     17.59423603  -39.37977594   48.78309513
    8    6.58366608   -7.98031770   -8.89442106    -28.33343752  -49.74239640   39.59865862     -2.37449191   -5.06283876    3.87661347
    1    6.80938809   -8.51891358   -8.02481807    -23.23566867   33.25402735  -60.55152873    -23.73443400   43.68042865  -87.88207281
    1    5.68713054   -8.38313663   -9.20594181     50.58770959   17.69820585   24.82340552     65.31981093   18.30831771   28.34674559
    8   -4.64108730    0.44023197    9.64476061     94.26627004  -47.04967530  -95.92283475      2.02138434   -1.19401441   -1.97355942
    1   -4.09379205   -0.49313700    9.52430693    -56.79998811   90.74718876   16.31192261    -13.64418462   21.75132203    1.39499173
    1   -4.32027312    0.94752247    8.75958850    -31.72324428  -40.10318509   80.19527618    -11.95184858  -14.26553557   26.32396516
    8    4.98443882   -1.93829974   -6.52477566     22.90900104  -75.76648963    7.32326501      0.22233989   -2.43979009    2.31045487
    1    5.05121184   -1.77648518   -5.54958331     -1.77444284   -1.51475640  -12.63559642     -1.28227032   -9.24660204  -42.03805743
    1    5.26013073   -2.95150750   -6.57892483    -21.66586169   72.79756747    4.44675372     -9.26212504   36.52372467    5.11625465
    8    5.71160898    8.86631310    2.32890960    -25.23683283  -19.50317638  -23.76300263     -0.26714261   -0.37828163   -2.88854387
    1    5.15604132    8.54130231    3.05121265    -11.27202066   -7.43650973    4.41035446    -12.11385620   -4.09450162   16.13889106
    1    6.35030032    9.34350248    2.80606491     37.40168300   26.79774008   19.84159361     14.96515411   14.99316616   11.91501703
    8    0.38447565   -8.86704073   -6.67751313     81.79078281  -64.14987837  -42.51016126     -0.95505106    2.33582747    2.00325332
    1    1.42724972   -8.71530797   -6.58567107    -83.73530085  -14.22947782   -6.40496413      6.11617428    0.19819381    1.84884617
    1    0.36668052   -9.74556492   -7.27993103      2.84612598   74.80900204   51.76804700      0.81667667  -28.14998015  -17.11731535
    8   -0.82748879    4.51275038   -4.37585925    -41.69887987   37.67155536  -14.83444180     -0.74041073   -0.99731320   -0.38380320
    1   -1.12870629    5.47899689   -4.41727539     21.58773062  -30.87406996    7.74212743      1.30539912   17.90236508    0.36205541
    1   -1.66832208    4.09969275   -4.71167021     18.56434865   -6.17141762    7.83414583      7.41692245   -4.87764739    1.43858477
    8    4.69459552    2.63826082   -8.13077837    -36.15811347   -1.27729288    3.37749658      1.22186368    1.59367956   -0.09171328
    1    5.17227488    1.79443549   -8.12018213      5.15397033   -7.67165518   -0.68822095     12.49057054  -28.43741985   -2.46763931
    1    3.73624951    2.33870107   -8.06176927     27.89482742    8.42110309   -2.66545270    -39.75397925  -14.82441056    1.32753940
    8    2.81642207    5.79663098   -3.50639613    -26.58111879   60.72903238   44.77501191      0.36168041    2.11089350   -0.93931860
    1    3.04450761    4.98774351   -3.85949080     19.51633321  -61.98184481  -32.19254918      1.51962727   -6.56426231   -3.08724109
    1    3.10070209    6.42930834   -4.18367506      5.72264359    4.72926159  -10.86956214     -9.35870386  -18.30855684   21.37892121
    8   -3.01696768   -3.17942835   -7.41101966    118.87733092    0.81941418   26.39623539     12.08452293   -5.00897848    1.25760445
    1   -3.84440976   -3.37548390   -7.70563653    -87.04321057    5.25598936  -17.00558354   -164.81323667  -10.11115231  -48.51178517
    1   -3.00293905   -2.24442784   -7.10154957    -25.83707505   -4.94856639   -6.91109690    -29.48933820   79.59467182   17.56246610
    8    9.75351031    1.11367075    4.73011811   -111.98150493  -30.10875677   13.67608785     -1.31223579   -0.93029002    0.14693922
    1    8.66713417    1.09308313    4.80686215    111.81478968    3.84299668   -8.61742856     16.71239668    0.56829692   -0.59059351
    1    9.97190155    0.12648047    4.76997101     -5.39992175   35.10536624   -2.09360844     -0.82880884   16.63664047   -0.06798985
    8    7.24168066    8.91052911   -8.46209448    118.98214420  -11.53221083  219.67276250     -1.15013658    1.07796911    0.63501655
    1    7.14496889    9.81197028   -7.81601309     11.18013335 -116.16263725  -84.72569988      2.11419658   -6.10448892   -6.75715350
    1    7.95117228    8.23675476   -7.79664504   -129.63806813  118.71390399 -122.47439342     16.10866557  -11.66371080    9.25008260
    8   -2.86437465   -3.48396153    2.97485226     23.69344540    6.84224622   13.22577168      1.24106153    2.84661080    2.80501383
    1   -3.23724486   -2.68322263    3.41235382      3.40192560   -7.19360054   -4.55478473     18.42038025  -41.41371520  -26.13773727
    1   -1.91002240   -3.45456596    3.29515731    -27.47031411   -1.67547087   -8.60331381    -41.47665175   -1.84192317  -16.32192585
    8   -7.32374477   10.21371590   -8.87382873      4.75054432   61.11385619  -57.44150179      1.30183260    3.76581756   -4.47873448
    1   -8.00958547   -9.66681154   -9.42855629     40.71025550  -39.08106009   38.58765577     51.87345494  -36.58568728   44.21695054
    1   -6.43231343   -9.84918977   -9.22105783    -43.39057685  -22.65811479   22.51046174    -55.32336752  -16.56118989   19.71013514
    8    8.55856502    4.15398736    1.46257919    -29.33859279   36.60643604    7.47963059     -0.52572295    1.16364926    2.05144192
    1    8.20388669    4.52676675    2.31164808      7.49829635   -7.07574642  -15.04547638     16.21335891  -16.13649323  -34.22689441
    1    9.08726182    3.43079732    1.74932418     20.47132649  -27.80029989   11.94739176     -5.29028067    8.46558723    1.10222479
    8   -7.90858491   -3.87331035    7.31916024     33.06647341   31.45910935    6.50852828     -0.55800937    0.82196570   -0.03726499