 BEGIN_INFO
   #
   # This is a XCRYSDEN-Structure-File
   # aimed for Visualization of Fermi Surface
   #
   # Case: Tight-binding calculation
   #
   # Launch as: xcrysden --xsf HICOLM.XSF
   #
 END_INFO
 # estrutura final
CRYSTAL
PRIMVEC
      15.14846123       0.00000000       0.00000000
       0.00000000      15.14846123       0.00000000
       0.00000000       0.00000000      15.14846123
PRIMCOORD
  300    1
    8   -0.06464444   -1.62643071    2.60385650     -0.11591156   -0.29502744   -0.60201256      0.66352457    1.44449266    6.51247516
    1    0.61803676   -2.20553297    2.10645455      0.38528573    0.26565071   -0.07066454    -31.45320602   -7.16686172   -5.23342039
    1   -0.19607344   -2.33669292    3.31912189      0.04767677   -0.13532339    0.70425292     21.72524471   -5.30163855  -38.19564623
    8    1.16636515    3.19865441    1.83801898     -0.02065052   -0.75717119   -0.69474800     -1.40968862   -4.55047871  -10.33304066
    1    1.08039133    2.59427794    0.98569102     -0.12604943    0.81990264    0.77795954     -1.40822180   -2.36106246   -8.59234228
    1    0.20014229    3.52737878    1.94556482      0.26655998   -0.07642961   -0.08685133     -6.43338047  -15.63532911    5.92159391
    8    3.74079955   -5.84217057   -4.02819462     -0.60902392    0.15557072   -1.19939049     -1.09438822   -0.92805947   -4.33707821
    1    3.74661470   -6.26758278   -3.13604897      0.46448595   -0.75230537    1.80108301     -6.38960519   20.43741432    4.29903760
    1    2.71303377   -5.99465540   -4.12945024      0.02731328    0.42771645   -0.40589242      2.46336044    8.57641458   -0.07880254
    8    2.33512667   -2.96437921    1.76707064     -0.17663140   -0.50766073   -1.43404669      6.34298084   -9.80214243   -7.39245757
    1    2.17846832   -3.19595812    0.75280728      0.45917899    0.48960975    1.50128003     20.93349578    3.78621861  -13.64888625
    1    3.20510195   -2.41351751    1.80003989     -0.03783249    0.05726796   -0.29968266     -3.47086526   29.71716987  -13.91887735
    8   -0.90889875   -0.12451192   -0.29171944      0.04925022   -0.35180853   -0.58361702     -0.06444945   -1.10435268    0.30074013
    1   -1.68679342   -0.21365582    0.38935717      0.41623128    0.23374661   -0.02568361      3.07447890   -1.00580834   13.35466771
    1   -0.61070166   -1.11126448   -0.39323289     -0.19491447    0.03054975   -0.02463928    -20.91570798   -4.29613112  -42.38348170
    8   -2.62813606    3.05754724   -5.37068983     -0.10672856   -0.15471867   -0.12197227      1.11647646    0.26049545    3.73742879
    1   -2.65719200    4.05067409   -5.61624783     -0.17546419    0.34625902   -0.98143508     -0.21901944   -3.48775261  -16.14917543
    1   -2.38322428    3.34122781   -4.43978323      0.34700792   -0.22960800    1.26116966      0.71002428  -21.25929168    9.30026463
    8    0.43887022    7.45008181    0.14939741      0.76477824    0.87753589   -0.72444182     -0.07370584    2.24339141   -8.06995023
    1    0.08530974    6.98559309   -0.73253064      0.29159295    0.04021550    0.88957835      1.26008629  -11.93452709  -10.67684698
    1    0.09094228    6.93095233    0.95904353     -0.74974959   -0.52533284    0.11842788      1.01144828  -22.51336425   -5.13414288
    8    1.10920542   -6.04077299   -4.12015551     -1.20520424    0.16620962   -1.42359176     -1.61933631    4.25032432   -3.11663536
    1    0.26718074   -5.91583727   -4.74702831      1.36599952   -0.27583939    0.92575270    -21.99013526   41.82283101  -14.46998978
    1    0.63372541   -6.26070994   -3.25769328     -0.28462075   -0.08044122    0.50049399     30.92905145  -25.97415134    4.89614219
    8    0.00351062    6.73985236   -2.33492410     -0.07591052    0.26735869   -0.14046855     -1.60273069   -2.47312911    4.17316608
    1    0.73985430    6.29739537   -2.88688334     -0.33097169   -0.03358489   -0.08708201      5.18452806    0.90277227  -17.10525417
    1   -0.87708147    6.54603612   -2.82308608      0.32523298   -0.16001286   -0.09673763      1.05216601  -24.69151956  -10.83795517
    8    5.65283087    2.11901053   -1.25778004     -0.36769296    0.55487994    0.10708885     -6.60026703   -3.12140587   -3.97844127
    1    6.17283328    2.83540961   -1.83457159     -0.42064289   -0.45175389    0.47697067     38.38554969    0.80322712    9.04293130
    1    4.67405853    2.42453415   -1.50004115      1.17018761   -0.13704003   -0.23176805     -3.77011546    6.42532146   -8.42454066
    8   -7.17059566   -4.94740928    7.12982988      0.44147852   -0.47438077    0.37614861     -3.96126646   -5.36128980   -2.24754652
    1   -6.95280627   -4.04441778    7.57062130      0.08247973    0.34100270    0.61810798      1.77367444   -1.04323266    3.09773066
    1   -7.28385410   -4.46587817    6.24431440     -0.14220046    0.25768694   -0.78674602    -15.24336128   21.28662890   -0.16460229
    8    2.05122699    7.56331301    6.50856027      0.65339487    0.27516807    0.62116336     -2.16820744   -3.08814282    0.25317048
    1    2.60712553    7.08479586    7.26236070     -0.32193174    0.73330610   -0.86224677    -14.07596473   -3.10759449   23.00796358
    1    2.36454596   -6.58524698    6.52203768     -0.15618553   -1.12801097    0.50573124     -7.57214259   14.42552910   -2.59563881
    8   -0.27543438   -2.68852823   -0.99150743      0.97615512   -0.50583260   -0.80276884      1.74150454   -6.11764705    4.39761775
    1    0.74035696   -2.49348831   -1.11925356     -0.74724699    0.15747538   -0.02898833      6.50596651    8.85781334   29.15798814
    1   -0.21943169   -3.74270406   -1.21690926     -0.27483394    1.26771729    0.79914465      2.28373702  -24.14115429   -7.84421325
    8    5.43746367    0.11434251   -4.45075508      0.73653180   -0.13244624    0.80902782      7.65871801    8.69140967   -4.30614185
    1    5.32086792    1.06241202   -4.09976260     -0.01389387    0.16451577   -0.06511358      6.27385683   -1.10152570   27.14014308
    1    6.19275157   -0.15759820   -3.77396588     -0.57549071    0.18893332   -0.76671921     16.26914247  -11.63254933   13.26277343
    8    7.24247164    5.88830459   -0.24999662      0.21111405    0.00349691    1.98835317      5.41572391    0.49652603   -0.42760521
    1    7.46918550    5.37257731   -1.06497957     -0.02930033   -0.82600472   -1.33020493     -0.80200355   20.57098076    3.28607550
    1    7.31109335    6.82427097   -0.62894381     -0.34498923    0.46438720   -0.62361486     -2.38598661  -11.72965077  -29.36481337
    8    5.05468418    1.00333354    6.74674847      1.47514933    0.33980569   -1.22106713      1.07064694   -4.94691037   -0.27967188
    1    5.48474213    1.56070687    7.46672359      0.17935748    0.22460933    0.58209042     35.24952980  -13.94511252  -15.51050009
    1    5.88420121    0.96316227    6.08233351     -1.23006570    0.01936474    0.79376693    -14.02057246  -18.71145011  -32.76009652
    8    0.45648302    3.56956576    6.47824740      0.41149910   -0.52151169   -1.06643640      4.11074464   -6.90075097   -3.87590404
    1    1.46957970    3.31656775    6.39926780     -0.34662210   -0.02207692    0.24934028     24.78017435    6.42124848  -31.19294950
    1    0.36938381    3.85095022    7.42580180      0.19898682    0.47189938    1.16650662     12.97816906    8.04648519   -4.25143104
    8    2.16027502   -1.54382769   -1.84015484     -0.54315208   -0.89325848    0.10856619      9.13832763   -2.48477692    2.23786140
    1    2.88312759   -0.90218609   -1.57122002      0.77689778    0.80796131    0.34964205     28.94927804    0.83085428   13.07515288
    1    2.80020096   -2.36533030   -1.80020925     -0.13871412   -0.22423360   -0.35698463      1.27700813    2.37881070   11.48193515
    8    3.60170298   -5.41659096    2.72697218      1.11465686    0.34598850   -0.01899914      2.03295051   -2.00138627    1.89638066
    1    4.52811784   -5.17741657    3.17114506     -0.83033386   -0.28974562   -0.43496013     17.68996308   15.92259130   10.49674299
    1    3.47208122   -4.49403279    2.26961978     -0.38389758   -0.48959411    0.38824637     12.48096842   -8.67072568   -2.53805458
    8    4.80621598   -1.46224514    1.44676002     -0.76241103    1.24665577   -0.77553155     -8.74098644    0.00933770    3.06188010
    1    4.60490385   -0.93990312    0.54520915      0.44393922   -0.88003181    0.69229762      1.41282348   -2.70692796   11.77979170
    1    4.63006934   -0.63810251    2.04359244      0.23306205   -0.40849369    0.27719440      7.80849244   17.42884367  -15.72491861
    8    2.93261559    2.61102531    6.09026080      1.59836730   -0.19165228   -1.72693081      0.28870183   -6.49853292    2.02422669
    1    3.80242291    2.08800274    6.35139820     -0.88396410    0.10112265    0.36473134     -5.29989944    1.70713475   -1.23438131
    1    3.31614800    2.80594424    5.12494086     -0.79224173    0.10907499    1.00411501      2.23945108   -4.99881116  -24.70278141
    8    6.96283037    1.30547677    4.57166951     -0.41063994   -0.16590230    0.25356625      5.61382627    4.37409050    1.22213974
    1   -7.32128811    0.72713161    4.42489994     -0.18698246   -0.05734660    0.42247034    -33.18291786    5.38945937   18.33366260
    1    7.38832855    2.18664216    4.34665121      0.14301780    0.49018839   -0.11157280    -13.18643239   17.82680553   53.52308520
    8   -2.23066348    2.27583977    7.24250866      0.54768008   -0.25056806   -0.78609657      1.23321414   -2.55645406    4.89356411
    1   -1.33577433    2.37352286    6.72642939     -0.38794172    0.13944717    0.53688128      2.69550675   -0.87951462    7.22194849
    1   -1.98606324    2.60668759   -6.96190831     -0.07763589   -0.02971650    0.06572283     24.15789284  -10.63627633   19.99744227
    8    5.58882528   -3.01865952   -4.70764373     -0.31833180    1.48469532    0.25413895     -4.13797745   -1.81513118   -0.02349289
    1    6.45300237   -3.48299548   -4.78942003      1.60301626   -0.96941098    0.08330829      1.20651556    6.51828050    3.87536109
    1    5.89187473   -2.19217156   -4.17559230     -0.16536892   -0.25004753   -0.03478872    -31.93166031  -23.55192259   15.49787346
    8   -5.66484615   -3.42543855    0.19947088     -0.35989940    0.49888725   -0.47316339     -1.95471773   -1.29235160    2.36802512
    1   -6.41782626   -2.88580547    0.64687098      0.22627675    0.18936642   -0.15491316      2.43617187   -4.82900057   16.93268484
    1   -5.52452181   -4.08051374    0.97014368      0.38616563   -0.43989877    0.48829252      9.42594603    0.76800419    2.69572551
    8   -1.65767828    4.39301177   -3.01841221     -0.06517070   -0.02809119   -0.75905125     -1.45231370    4.18391438    1.11438325
    1   -1.67467869    4.61552869   -1.99915911      0.01684784   -0.20526309    0.17149118    -16.86771940    6.66027175    4.80195233
    1   -0.69803526    4.03772601   -3.03824389      0.08158137   -0.04264484   -0.09478195    -16.11752358   19.70357822   16.18635306
    8   -0.11083384   -5.20510805   -1.09454426      1.49220595   -1.59862985    0.37862080     -2.85902386   -2.81514235   -1.72290266
    1    0.43841444   -5.99116583   -0.67032723     -0.04109627    0.96983364   -0.32293891    -19.78884079    1.48755170  -12.51224554
    1   -0.89471563   -5.80873683   -0.99468327     -1.34708966   -0.13752939   -0.19539681      7.93460260   -0.97921555   -7.86683643
    8   -4.61475649   -2.50358838    5.55269583      0.15003642   -0.24184931    0.01702116     -1.61995691    0.54972761    5.71460192
    1   -3.82860264   -3.10895441    5.28163779     -0.02604929    0.03779687   -0.50031506     13.20166747   25.09859671   -2.22649148
    1   -4.21472139   -2.27210299    6.45263006      0.07313930    0.42050829    0.69185325      3.36046569   -3.85354388  -27.89140905
    8   -2.00007764    3.25475942    1.89088643      0.19553033   -0.51729621    0.20998315      2.08633493    0.39192722   -0.94384267
    1   -1.64621391    3.45415611    2.83556637     -0.06106376    0.44524673   -0.17494870     16.50477274    6.40496093   -1.84926707
    1   -2.05586191    2.24028477    2.02651349     -0.10040786    0.05612737   -0.26472013     12.73954916    5.26874983  -41.62475405
    8    6.64860442    6.81498386    6.29133641      0.47162654    0.12031367   -0.09258865     -7.15025831    2.28001746    5.94193659
    1    6.81502606    5.82957994    6.10961466     -0.12546334   -0.43270569   -0.13255519      1.87939784    2.45146711  -18.46210745
    1   -7.57138328    7.08710044    5.91096405     -0.20417988   -0.10092057    0.09074390      4.33473837    3.36328061    1.47694887
    8    4.41015122   -6.45230442   -1.37463979      0.49651892   -0.18233729    0.66382950      0.57882644    0.43262014   -0.23709641
    1    5.42208984   -6.59809763   -1.57367490     -0.37922527   -0.29875955    0.10041042     -6.84557149   16.39446784   -1.58181776
    1    4.29221547   -7.04251901   -0.51140466     -0.19130184    0.42354893   -1.00546702     -7.76204494   18.19650237   17.52281532
    8   -7.52388746    4.48498202    4.75456155     -0.48649047   -0.84542767    0.18348319      0.01723849    1.77604759    1.57472113
    1   -7.52248317    4.04423201    3.83455047     -0.30025918    0.24445921   -0.29273882     25.63781341   14.91871657   -2.74366153
    1   -6.70437715    5.05854782    4.64315416      0.59207309    0.64516664    0.21071889      1.69498381   -3.69017193  -27.23636848
    8    4.40151411    5.37044766    2.10242518      0.71952456   -1.00397386    1.41602937      0.99283627    3.22209509   -0.71962732
    1    4.11377458    5.75130979    3.02200642     -0.43761257    0.48780607   -0.52616193      5.71644881   12.70897136    9.09434345
    1    3.93627026    5.95943219    1.42391907     -0.67558063    0.86129606   -0.47313333     11.50354412    6.86790929  -11.91145815
    8   -6.04185896   -0.76198963   -1.03409153      1.33746953   -0.10077611   -0.93028786      3.39585693   -2.50414690   -0.10503388
    1   -6.12138893   -0.49501518   -0.07528727     -0.34573373    0.15144539    0.96831768     22.57925556   26.64995668   -6.91989296
    1   -5.14386290   -1.27428671   -0.97761985     -0.75928000    0.12707803   -0.06687221    -38.00075269  -26.84947406   22.97553864
    8    3.40245139    7.18943873    3.99669299     -0.59907523    1.29932286    1.18308854     -3.83131679   -3.57313360    5.12195515
    1    3.51859343   -6.93318946    3.83330936      0.03949312   -1.02086720   -0.21453573     21.69478726   -5.49580822   -2.79778986
    1    2.84069838    7.28168823    4.88489689      0.58038774   -0.48942556   -0.98733675    -19.92639449   -2.49400792   19.53553209
    8    6.63342782    4.07656624    1.98566431      1.20826855   -0.05173396   -0.28706594      5.24603066   -1.28237028    2.54060754
    1    6.77743720    4.51396366    1.05013461     -0.21789985    0.04736508    0.61241057      9.73464762   18.20672929   10.92966745
    1    5.81233037    4.60730276    2.31059760     -0.36207748    0.15584988   -0.53872703     11.27474488    5.63805820  -35.53784665
    8   -1.30714142    4.49939625   -0.47443573      0.32793523   -0.24821695    0.07174365     -6.76052061   -2.57170110    5.01073871
    1   -1.80078969    4.00371425    0.26949273     -0.32371393    0.12769313    0.63125232     11.73005607  -17.69364719   -8.15350110
    1   -0.55642122    3.79151270   -0.49538640      0.03594849    0.04771290   -0.15304641    -27.05203798  -11.44095888    0.96373844
    8   -0.80712240    1.53311561    4.01349660     -0.06776349   -0.37204385    0.15395998      0.89035125   -1.48647605   -2.27932934
    1   -1.19920973    0.71094040    3.52924541      0.07280749    0.45712488   -0.03803408     25.88991009  -23.86193226  -16.60027233
    1    0.09051940    1.08496274    4.29076499      0.02861832    0.04277481    0.03915895     -7.39046563    1.71198713   -0.66318076
    8   -4.73918456    3.36282970    7.02397130     -0.35782003   -0.82473362    0.94257145      1.16341255    0.82937853    1.56864898
    1   -3.89970026    2.85040939    7.36541366     -0.02540331    0.41895779   -0.69151609      0.19638031   -4.64660741   12.70587330
    1   -4.27069737    4.09773238    6.49962655      0.43102631    0.40113657   -0.60946389      8.73040379    6.76975536   30.31874012
    8    0.87104841   -5.89736461    3.36878665     -1.30392292   -1.13201096   -0.09363389     -4.05685266    0.62451663    3.56548424
    1    0.50168988   -6.76924441    2.91028561      0.39190350    1.22514016    0.56957483    -10.77656133    9.20988014    1.15827311
    1    1.84185224   -5.91211943    3.10528759      0.84021902    0.15845954   -0.32962420    -14.83081226   -6.00866069    6.32621131
    8    0.23497333    2.22856794   -0.79540516      0.48337304   -0.57548908   -1.00219977     -0.91228109   -1.85944754   -3.12397452
    1    0.45620647    2.23703971   -1.81468840     -0.17425102    0.04879654    1.04952317     22.60388832    8.42331635   -2.53884823
    1   -0.00604328    1.20920911   -0.66994090     -0.24509741    0.78184235    0.09621395     -2.46391811  -19.71947453  -18.96376896
    8    6.75376134   -1.34601433   -2.28563702     -0.78901222   -1.07731484   -0.23661612      2.30188183    2.78581158    2.71237665
    1    7.28405676   -2.23814946   -2.24362984     -0.16808222    0.85908573    0.04529988     12.08672300   20.83418644  -10.43701324
    1    7.50408444   -0.65309578   -2.19579247      0.42320508   -0.15268103    0.10308806     17.23569487  -12.07254388   -4.43201119
    8   -2.08425112   -0.08847703    2.04243904      1.13529195   -0.00619251   -0.63538391      6.34517089    2.12472664    0.87321241
    1   -2.58624280   -0.59445143    2.73430102     -0.74252684   -0.59140981    0.73905398     17.34448857  -25.10342330    9.95608595
    1   -1.21045944   -0.69904725    1.98817562     -0.83119698    0.65138803    0.56042089     15.09011907   -6.47562937    2.97588825
    8   -3.19128995    6.40795860   -3.98806641      0.08383612   -0.00512583    0.68512366      1.65711034   -3.23480851    2.55842949
    1   -3.30788290    6.29963627   -4.98487820      0.13491025   -0.10051021   -0.66963589     17.67779573  -25.65447642  -12.30762816
    1   -2.65637290    5.54621756   -3.77958643     -0.12953688    0.24721973    0.21940549    -29.97386098  -13.85548416   -1.01920365
    8    1.14136333    3.30837040   -3.66091972      0.30363168    1.64769028    0.16366989     -2.33399268    5.60105888    9.23127816
    1    0.89104647    2.50977546   -4.24925607      0.11023482   -0.63133905   -0.39925149     -0.96936341  -20.83052066   33.41650556
    1    1.46884150    4.01997805   -4.36707873     -0.53866035   -0.81213772    0.28866557      5.05317167    4.92830415    0.19236721
    8   -6.06341631   -5.97506248   -1.37158347      1.25112539   -0.73361447    0.53843098      0.74379313   -4.30268871    1.76331668
    1   -5.48706371   -5.43794063   -2.05530984     -0.22205461   -0.12552377    0.63101333     35.56146433  -42.37238912   14.37922932
    1   -5.35133891   -6.15888571   -0.62061327     -1.04119746    0.42965026   -1.19102020    -15.14912206    5.01995289   -7.10289250
    8   -6.03689183   -0.05443437    4.76434913     -1.04619828   -0.41066083   -0.23003932      3.56926149    0.76242227   -0.92412188
    1   -5.07603721    0.25662349    4.76056124      1.20526535    0.50853311   -0.02402444      6.97983624   -2.14152960   -3.97340668
    1   -5.86837669   -0.93750983    5.22975549      0.24534245   -0.33930048    0.09484555     19.00917645   18.60586933   -3.10666606
    8   -2.69353644   -5.97660858   -3.47822068      0.68369817    1.39408461   -0.78494323     -6.63589245   -3.18491112   -2.93506804
    1   -3.36834717   -5.30440813   -3.04905452      0.29191258   -0.36482301    0.23638536      1.72264435  -11.29957729   27.16455546
    1   -3.03180709   -6.87998111   -3.23714357     -0.65396977   -1.28255814    0.29453421     -4.96691527   -3.16353547  -17.58223815
    8    0.78484819   -4.01446664   -7.06023999     -0.42508966   -0.54463795   -1.00661142     -5.52659778   -1.18194747    8.55098711
    1    1.50349146   -4.47621525    7.52051092      0.03624236    0.14567342    0.33540558     17.99998839    5.67521200   14.04719747
    1    1.34401751   -3.72503492   -6.27987186      0.58287911    0.32871380    0.72468776     -4.12600357    1.21438407    0.92539961
    8    3.22234372   -3.31067434   -5.34344461     -1.47044310   -0.06703144   -1.02977964     -4.65874369   -5.09541616   -3.74917911
    1    3.39707353   -4.14660765   -5.92560471     -0.20495583    0.29277247    0.29005339     23.35850363   -5.52774372   16.45969645
    1    4.23228684   -3.15732114   -5.13646959      0.32225050    0.00153021    0.46031033    -13.75670764  -12.68773859   17.91312209
    8    3.25391698    7.35348539    0.71978278     -0.96656105    0.56952990    0.16931014     -3.85619589   -2.93724141   -3.15698618
    1    2.22559673    7.49969568    0.62096239      0.50407974   -0.56391534   -0.44708663     -7.74387716   -6.45048900    0.71747674
    1    3.34591909   -7.06869930    1.42566854      0.33656017    0.17906358    0.29539587     24.32394510  -11.50696984   48.50982650
    8   -7.08630075    4.09784829   -5.01275050      0.56828127    0.72170641   -0.03630393      3.61455392    0.88484807   -0.93641234
    1   -7.37464927    3.83147044   -5.96720312     -0.14523278   -0.14281045   -0.16061914    -19.51372395   29.62125267  -13.45444744
    1   -6.32616424    4.71699850   -5.33107349     -0.49234386   -0.44463428    0.42186024    -13.86746484    2.57184280    0.68800167
    8    6.03940407   -4.57021885    3.82735615     -0.39150300   -0.51247547   -0.51073937     -2.52291319   -7.44038624   -5.13431950
    1    6.61291543   -3.88322522    4.28981011      0.57090888    0.60964744    0.58991576    -12.98200730   12.87568699   -0.90096023
    1    6.81360154   -5.02768728    3.33157844     -0.34397276   -0.20279199    0.08661213      5.60683987    4.04978609   -7.70310905
    8   -1.61203781   -2.47115001   -5.30783921     -1.22296523    0.38770391    1.42598960      3.63044687   -5.07372540   -4.83808128
    1   -0.62350907   -2.36028894   -4.99330093     -0.01000319    0.00710505   -0.01281855    -33.27799244   20.62201136  -10.36627525
    1   -2.08090243   -2.32864139   -4.36954405      0.79160136   -0.40571931   -1.64822721      5.46283936    8.91022062   21.11489680
    8   -6.68160243   -2.56045139   -6.79973619      1.21285030    1.37569413    1.14094987     -3.75791960    9.10639739   -2.79554362
    1   -7.49123782   -1.97188364   -6.67085595     -0.62724746   -0.09013607   -0.23405483     22.90084706   12.22137721   16.54159813
    1   -6.06644875   -1.87841554   -6.28057159     -0.49282808   -1.32626909   -0.95472866      2.87462443   16.53735793   27.44263136
    8    6.66752660    4.12647276   -2.68366924      0.29832318    0.38887761   -1.19451831     -3.75583943   -0.49988529   -1.58294584
    1    7.36429369    4.11667493   -3.47619631     -0.47841815   -0.23330620    0.58878208    -11.80000875    1.36188501    4.78451392
    1    5.90409456    4.52924810   -3.24404567      0.31176239   -0.23742007    0.47600897    -15.67383278  -29.81164949   18.90563638
    8   -4.72343833   -6.59052910    7.08942331      1.94064950    0.17031159    0.02232152      1.86063497   -0.09940086   10.06244857
    1   -5.55999629   -6.14559773    7.36244951     -1.89586751    0.71170181    0.28683970     -0.61484895    7.11939928    5.19651011
    1   -4.11896462   -6.02200400   -7.44311620     -0.09060171   -0.56462902   -0.41105911    -13.65609294   19.01339144    4.35843363
    8    3.58919674   -3.75831415   -1.96009681     -0.25777426    0.77419396    0.74646482     -1.33421917   -2.60950565   -4.90681882
    1    4.11736066   -4.49125940   -1.52834632      0.45755116   -0.64911500    0.92911808     14.93815760    1.30143145  -21.40483909
    1    3.64497318   -4.28426984   -2.80341271     -0.23832259   -0.19870494   -1.63702903     -5.69812260   -1.56228166    2.06233107
    8   -2.72194351    5.43594663   -6.64209648     -1.51070810   -0.42921539    0.75727954      8.71264427   -1.34336014    4.27350979
    1   -1.90179829    5.89994093   -7.02970880      0.53373568   -0.05271718   -0.46494348     48.19510853   -1.53489430   20.95111730
    1   -3.40467622    5.36608536   -7.41208537      0.73525909    0.25940276   -0.10741815     15.70910049   30.58111295    7.53221413
    8   -1.91142501   -4.14444254   -7.43986758     -0.45454553    0.11838425    0.48116050      0.38816310   -0.23252400    1.08604272
    1   -0.91675296   -4.10721555    7.48729562      0.73484433    0.05160594    0.11925294     18.70616619  -40.41578146    4.46712193
    1   -1.82375084   -3.48217041   -6.63064218     -0.20570956   -0.31382222   -0.37676142     -9.65579976  -17.20523573  -10.76951976
    8   -0.75600935    6.62916829    2.45098170     -0.76415892    0.38465329   -0.07074524     -1.01859768    5.95857384   -0.99303180
    1   -1.77437950    6.46740824    2.57042650      0.56085689   -0.02435314   -0.20915475     10.08878793  -15.11946146    6.33362215
    1   -0.48394135    6.24310986    3.34076015      0.23713222   -0.54359994    0.38149465      5.28447100   -7.01332909  -36.58137923
    8    6.72741728    7.49638624    2.97836688      0.56075162    0.27008952    0.40963938     10.03912863    3.44925674    1.77105556
    1    6.21138983    7.23754102    2.16453390     -0.46638214   -0.27560128   -0.70752814     -3.32786986   19.69933486   13.43370202
    1    6.27336878    6.91499791    3.67528462     -0.01463386    0.04201628    0.20708106      9.27043775    8.34415187  -17.86527714
    8    3.59397055    2.96144480    3.29883161     -0.59000165   -1.39576158    1.41446083     -6.75918818    3.18779492    1.20226529
    1    2.64058213    2.86500866    2.92060938     -0.16079340    0.33737957   -0.40561571     -2.67330553   -9.01108388   -0.84000856
    1    3.95835356    3.66887352    2.69915862      0.32293143    1.13861941   -0.95552131    -17.64869636    0.24396965   17.15747610
    8    6.89245863    1.53116845    1.44100803     -0.11185419   -0.23501712   -0.36482982     -2.81521065    6.02529586   -7.69960761
    1    6.38138229    1.67749276    0.55970623      0.19709346   -0.05173518    0.08529486    -19.86047875   -9.21014712   -3.92928873
    1    6.92212393    2.52108525    1.75170676     -0.17545037   -0.11024151   -0.05144980      5.25968804   23.55989707    6.93507719
    8    4.55416091   -0.33223201   -0.99547977     -0.38307033    0.01249179    0.01034462      5.66139332    5.53620208   -0.89706148
    1    5.34490255   -0.83835533   -1.42430313      0.21712246   -0.12526919   -0.19667572     13.60447076   -9.71862196   17.18430581
    1    4.89087942    0.62264577   -1.20163425      0.30174872    0.05352839    0.20223132     14.45266398   18.43104830   -0.24275178
    8    1.05785591    0.85510147   -4.62912934      0.08567719   -1.37102887   -0.27793770     -3.78333293    2.27970638    7.29509102
    1    1.87990609    0.49223826   -5.18260915     -0.81530750    0.15093206    0.38855625    -12.93263618   20.37269458    3.17602315
    1    0.54210291   -0.03562635   -4.42261806      0.85985247    0.90615307   -0.40273315      3.40242065   -1.64832245   10.96137813
    8    6.94123870   -7.25509897   -2.10560785     -0.11465883    0.19747377   -0.50051256     -0.21140005    5.95619005   -0.29382163
    1   -7.29784364   -6.77645534   -1.95911886      0.03909172    0.20223483    0.48129508      8.61778030    1.71367345   -1.27404386
    1    6.82958766   -6.96399970   -3.08677424     -0.26928634   -0.04612500    0.01712596    -42.43262951    8.92328432  -20.51754763
    8   -2.90796457   -1.86442814   -2.19476904     -0.65611404    0.03244342   -0.65826364      4.62130316    6.65860654   -2.10057722
    1   -2.85340787   -0.88133334   -2.41974697     -0.10642616    0.34039688    0.10813204     34.76171295   19.31276701  -13.15545236
    1   -1.92845925   -2.04045970   -2.04571992      0.81511771   -0.40557665    0.58512451      1.78729905   31.57991753    6.58116507
    8   -7.16720537   -3.00984662    5.21870671     -1.97033067    0.02837319   -1.09039446     -3.68509761    1.49455211    1.62465593
    1   -6.18769674   -2.83077860    5.40964215      1.20910166    0.24548415    0.00491792    -30.22171364  -27.95211001   29.61830432
    1   -7.38931682   -2.28218094    4.51253488      0.48064771   -0.39301368    0.58039987     -3.77903413    5.61468121   16.55950067
    8   -5.85893783    6.74037318    5.47873456      0.71701211    0.77893499    0.07979526     -2.91302062   -1.29457182   -3.60168398
    1   -5.21597476    7.38603756    6.01159184     -1.00029492   -0.78851194    0.06022893     -8.74040295   -0.53375543    6.72213660
    1   -5.29260310    6.76313561    4.63362810     -0.05270576   -0.15357145   -0.17571870     13.42816770  -26.68159700  -15.26297289
    8   -3.96123118   -6.32573622    4.47474812      0.68478845    0.33549807   -0.01522858      3.39119038    4.88041088    0.93888982
    1   -3.04987048   -5.84332988    4.64764060     -0.85441230   -0.02761418   -0.18520628      1.82832028    8.72356376  -15.76506392
    1   -4.38330607   -6.28538084    5.41825393      0.29689478    0.09358156   -0.04882215     25.14025012  -23.73542767   25.12397040
    8    4.59034206    0.51287941    3.76107560     -0.64803375   -0.47732326   -0.41163370     -1.22178152   -8.90893370    3.84139851
    1    4.11591406    1.40306111    3.56004821      0.03817685    0.31405372   -0.17800679     -3.11104894   -3.64247143   -0.62799610
    1    5.50539751    0.88094014    4.04959954      0.59883033    0.10796670   -0.05701248      2.25282100   14.13941709  -10.41442580
    8   -4.19700340   -4.30890193   -2.13767100     -1.17501967    0.11484954    0.72007247     -4.05657067    2.70288681   -1.41333742