 BEGIN_INFO
   #
   # This is a XCRYSDEN-Structure-File
   #
   # aimed for Visualization of geometry
   #
   # Launch as: xcrysden --xsf HICOLM.XSF
   #
   #
 END_INFO
 # estrutura final
CRYSTAL
PRIMVEC
      20.34355982       0.00000000       0.00000000
       0.00000000      20.34355982       0.00000000
       0.00000000       0.00000000      20.34355982
PRIMCOORD
  927    1
    8    4.36620833    3.09156506    2.01308021     27.54903619  153.83141448  117.12159892     -0.10240001   -0.83805269   -0.40418206
    1    4.93491381    2.94917085    2.94433119    -67.75735491   17.48339988 -109.34674769      5.11467651   -0.62466995    7.22929937
    1    4.11304282    4.21069514    2.09372920     39.92558133 -172.38771974   -9.54744205     -2.26120602   13.51274298    0.24499233
    8    8.98253465    7.40381407    0.80605981    -42.66023565  -11.55083522    6.64543130      0.15305948   -0.38844940    0.19882947
    1    8.18609835    6.86071841    1.10369588     27.14738630   21.63538683  -11.06130287     -0.07681087   -0.10611441   -1.06530136
    1    9.72646627    6.91154841    1.16807264     13.09738165   -9.58402670    6.96312750     -2.99668890    3.76691091   -2.90079610
    8    9.52445786    9.97248756    6.80616750      1.24014686   62.70129520  -49.87881791      0.50828874   -1.68153095    0.39890659
    1    9.64300518   -9.66396467    6.02894744     -8.93372894  -53.64117018   57.51485459      2.81463799   19.79302349  -21.26076950
    1    8.85436083   -9.91698031    7.38289869     10.15035250   -7.57154829   -8.23277326    -13.64948351    9.47177861   10.72121479
    8   -1.19091658    6.52431503   -9.05633920     51.84014598  -27.78947409   64.73336106      0.33510536   -0.30293603    0.85288483
    1   -1.80225702    6.74936474   -8.29343357     14.66665466   -6.07197123  -21.84370152      4.80648684   -1.90744710   -6.44978385
    1   -0.37566511    6.07909895   -8.54647433    -64.14901691   34.89125498  -43.29811432    -11.00580314    5.52337974   -7.22304127
    8   -8.95503657   -8.72997273   10.06600876     31.55554152  -10.44464582  -23.65411789      0.20105973    0.19045301   -0.14301155
    1   -8.50641815   -8.12194905    9.42313755     -4.17177857   -9.32283969    9.24322532     -3.49892615   -5.74320413    5.13252616
    1   -9.75059135   -8.26312813  -10.06095446    -27.97083843   16.91636185    9.16506888      4.56762379   -2.85737881   -2.18917077
    8    4.71996339   -1.45303894    6.94922727    290.23314227    1.68930849  -82.85348546     -0.60370101    0.13156714    0.34397218
    1    5.57350535   -0.61889830    7.08934131   -165.97978343 -159.82834530  -24.37656022      5.61785355    5.54423487    1.26438518
    1    5.34662444   -2.31462191    6.39921195   -120.91472569  165.79123233  106.93326139      5.03129950   -7.45711950   -3.93894283
    8    3.21250927    9.80973754    7.10551690    -90.17418056   58.47364597    8.06999277      1.51374959   -1.24677853   -0.24476935
    1    2.32454549   10.06529062    6.55980414     79.51569007  -22.33003978   49.21746423    -22.83447413    6.61940653  -13.72128577
    1    3.10773281   -9.92418908    7.94837896      7.62700346  -41.32630377  -57.81046908     -1.86361805   12.89939077   18.38405498
    8    3.58476249    7.48776429   -5.39612462   -151.25743064 -218.78832225   45.02215551      0.70054248    1.18964804   -0.40079839
    1    3.72911120    8.18085763   -5.13831684     52.40803559  222.49693363   76.18237400     -0.32717376  -18.42237371   -6.24154827
    1    4.10998806    7.38673015   -6.03262057    103.80130647  -12.51187033 -121.59937462     -9.29714868   -1.41979156    9.24919529
    8   -2.46896456   -6.19287697    9.20684004   -309.22956096   -9.64593063 -207.26426972      2.35315960    0.35824103    1.91986656
    1   -2.50132425   -5.45241237    9.56148907     -3.26685373  152.08503999   74.73268351      0.35092671  -24.98001189  -11.95470719
    1   -1.93102610   -6.45166630    9.45119643    299.37946918 -141.14147962  138.44624621    -39.93164203   20.21176039  -18.35564732
    8   -2.20113508    1.65515814   -7.00335884    329.66002483 -440.87483690   42.93517755     -2.61680515    0.99543929    0.63236503
    1   -2.33192507    2.03785621   -6.60051059   -118.01974491  310.89152900  287.98481912     18.23201398  -12.03624709  -26.66862288
    1   -2.48621779    1.80795184   -7.50854989   -204.74384193  128.88010998 -332.89295563     30.09869771   -3.00239681   19.18571154
    8    1.39939375    5.13681790    4.24880921    -21.82457403   -5.20303215  -44.39939016      0.05856101   -0.18547560    0.28045022
    1    1.55982384    5.82739959    3.52996433     -5.22375929  -21.17337192   22.01980510      0.54243725    2.23589191   -2.90107348
    1    0.83077737    4.46552306    3.73906999     25.50664575   30.36184848   22.53955162     -0.89832471   -1.19265030   -1.43750349
    8    7.26255816   -5.96700572   -4.86046853      7.41725644   -8.77385603   -2.66217522      0.41822647   -0.67323550   -0.49408439
    1    8.04669455   -6.00894926   -5.44496402     -5.32045438    3.01676839    3.90379029     -7.21761508    2.19808735    7.32899470
    1    7.06855091   -6.91674029   -4.70458547     -2.10139270    5.86646103    1.30609379      1.92659016    7.95732364    0.53553920
    8   -8.78010742    8.58721927    3.03497215      3.02135324   19.20874097    2.95062466      0.43762765    0.94734101   -0.86413676
    1   -8.89100953    7.76673189    2.54518296     -2.09420827  -12.68008064   -7.35401028     -1.06573098  -10.16526700   -5.11715410
    1   -9.04673132    8.32105924    3.93910075     -1.40720559   -1.89138028    3.64022618     -4.96182457   -6.15937629   18.17076200
    8   -2.14856561   -8.34926233    3.01291020    172.93384138 -107.68457277   93.97458529     -0.45870973    0.61535998   -0.35906590
    1   -2.65594904   -8.90236234    2.58334117    -77.19214760  -72.69016232  -61.82145234      2.33481397    1.70313810    2.64248024
    1   -2.49142820   -7.64650441    2.90247773    -92.80540887  175.87451260  -32.31102129      5.44604913  -11.48614569    3.32851658
    8   -1.46803073    4.16963091    6.58601398   -137.01994333   21.95112963  -84.81683649     -0.72274192    0.21696643   -0.34274946
    1   -1.24512581    4.55323956    7.32097117     38.24207992   54.01481256  110.11089247      1.43140282    2.10774028    4.15282189
    1   -0.79319387    3.66109581    6.41022969     98.73930973  -72.02503934  -21.68731874      8.21128514   -6.22232606   -1.75427532
    8    2.68242869    1.02281254    1.72872299    161.94457890  160.41644033 -281.48329672     -0.68902264   -0.73465729    1.60911840
    1    3.45496389    1.97014302    1.80604094   -162.98228751 -197.47180347   -8.82289709     12.70362788   15.06192282    1.96934246
    1    2.67558046    0.83946469    0.48045171     -3.15527336   37.64263708  291.17471600     -0.34385381   -4.18122368  -26.56987703
    8    2.10903037    1.81980807   -7.76743590     25.28194809   69.06660634    5.17757793      0.33398912   -0.39619842   -0.42462032
    1    1.49615865    1.19143583   -7.47452901    -33.49797447  -36.96928051   15.61745370     -2.50624676   -2.66446689    0.99690860
    1    1.85762609    2.61257654   -7.18652837     11.39689561  -30.77818067  -21.67473473     -3.12427522    9.62027600    6.54750060
    8    6.04633585    0.25079915   -7.67504960     11.06609895    1.02076473  -12.86059262     -0.03741944    0.16931322    0.10568112
    1    6.60736949   -0.32642869   -8.25405512     -6.54856500    5.90120968    7.57938264      1.31001279   -1.87719742   -2.03245275
    1    5.53384364   -0.41160493   -7.18908092     -4.41239185   -6.67726487    4.89229392     -0.22084469    0.06523854   -0.01433568
    8   -0.22842520   -7.08576656  -10.02764684   -340.73521436  323.63121451  -49.50121910      2.61388861   -1.86160318    0.42093043
    1    0.36926576   -6.84103707   -9.76711791    270.94456546   88.21972044  109.15178963    -35.63306655   -9.86209321  -12.96373106
    1   -0.15460475   -7.66685824  -10.12825213     75.32875734 -403.10298836  -65.31011613     -5.83337870   44.96700971    8.65967472
    8   -3.85664975   -0.23520173   -2.24507886    -43.28713847   43.71723969   29.89358571      0.21155539   -0.07583071   -0.16896641
    1   -3.85999558   -0.85290587   -2.93257160      0.63991226  -37.77995315  -42.10348019      0.10498987   -0.31835217    1.19629254
    1   -3.06220980   -0.44013430   -1.79906244     39.95864562  -10.95019380   20.28130502      0.16025992   -0.56594025    0.38683101
    8    7.10687222   -9.36404596   -6.61415895   -171.21822684 -223.00404350 -294.52136584     -3.35617907   -0.60471215   -3.67223050
    1    6.69331913   -9.20953185   -6.01617419    -84.66140283   86.64248703  231.56705001     21.72790769    0.19025369   24.27018091
    1    7.78703804   -9.12202598   -6.62137999    250.26499057  122.53116799   65.08663285     38.64300660    0.70475101   39.31892685
    8    1.37091210    3.66802493   -5.88824768    132.30935945  -26.99491836  279.47546079     -0.88277783    0.33517155   -0.97022398
    1    0.57076503    3.91288153   -5.18797712     88.06899651  -26.19694410  -85.66631035     -3.25956407    0.55645101    1.64522850
    1    2.31679655    3.42905391   -5.08704356   -212.31797126   56.68905246 -194.20334523     13.22055678   -4.27246711   11.73754471
    8    6.27823720   -0.45336860    2.78091846   -120.27025465   -2.27091136 -172.58439545      0.06545991   -0.06791147    0.18113015
    1    6.69062696    0.10239401    1.93253665    -40.59601390  -61.36144369   97.10169518      1.02725885    1.80525920   -2.22458671
    1    5.25895081   -0.79762671    2.35729865    161.59161555   52.16426636   72.38724101     -2.74301394   -0.51296516   -0.92091404
    8   -5.12673071    2.18143521    5.30795751    -82.57375557  -33.96137545   43.02122219     -0.22607258   -0.05790231   -0.07833752
    1   -4.79829361    1.95540299    6.20072689      0.45527811    0.45522971   -1.39661683      0.32208725   -0.47408660    1.11280855
    1   -4.38461433    2.46835981    4.90919309     78.70203149   28.35322158  -41.67281972      1.57400845    0.47481486   -1.09485288
    8    2.31934731   -5.54131021   -2.93753181    -43.76467697   41.32100565 -127.35591618      0.02356202   -0.13678609    0.62191846
    1    1.94358663   -5.23433426   -3.93104022     47.51910952  -34.39760598  117.80111090     -3.82396174   -0.39683755   -2.09102945
    1    1.52109252   -5.93819333   -2.54974673     -2.18074090   -2.94460942    5.22032979      4.02791549    4.72875086   -6.07961794
    8   -3.64311432    2.29144585   -9.08247167     34.69144972   75.88070222  360.61397687     -0.73941686   -0.07000206   -2.37440141
    1   -3.87010951    1.76267846   -9.44788531   -100.26308238 -239.73256639 -184.19862470     10.93904633   21.84187577   14.75425052
    1   -3.45082183    2.81710174   -9.57476091     63.38091434  168.23256706 -178.12384845     -4.60631880  -19.25197671   21.50826489
    8   -1.17430555    7.66706570    3.63611399    -63.44936776  -79.56956488  -19.40130999      0.11609757    0.09149038    0.02430477
    1   -0.89958260    8.43542916    3.31283560     32.24669965   88.05958716  -34.65502607     -0.50107924   -1.54404970    0.51821561
    1   -0.70663816    7.57010867    4.40903862     34.54531967   -5.75015976   55.87906767     -0.16246533   -0.20627201   -0.25535617
    8   -8.84195292   -5.67816472   -2.10312091    349.00519426   13.66766072 -418.06349881     -2.29428211   -0.10933495   -0.17582931
    1   -8.91351797   -5.16433419   -1.73397735    -92.11471820  261.47712809  257.08865246     18.56561413  -13.44068308    5.10178721
    1   -9.18669423   -6.16497502   -1.95930759   -253.83599482 -273.57471448  153.93348144     21.54335710   10.88072718    3.17389557
    8    2.61119661    6.04553532   -9.73629500    -64.27321649   -5.05228663   29.19563398      0.04468211   -0.19732504    0.29533170
    1    3.43288828    5.63997848   -9.49131354     27.52208618  -13.79829106    8.52542947     -3.09266108    2.32925949   -1.71139589
    1    1.97942419    5.75173157   -8.97458144     32.03905692   16.49680275  -39.87409422      2.83658211    1.63060938   -3.90556758
    8   -1.55295113    8.60460920    9.56677813    -18.20951034  -54.44741770   48.63618008      0.34197518    0.16549964   -0.09893127
    1   -2.50567331    8.73873715    9.90169041     41.42310325   -5.70937224  -13.83207085     -7.16136097    0.64770320    2.44360210
    1   -1.23643394    7.82166842  -10.15753937    -23.33965103   55.42324417  -42.94166237      0.93618291   -2.62243451    1.87830930
    8   -3.35451368   -2.01964338   -4.20650495     -4.02935811  -41.36635876   72.41220412      0.20388200    0.17943365   -0.41890671
    1   -2.40676428   -1.93557937   -4.04789870     12.85781906    2.07427502    1.36343778     -3.22273432   -0.42717853   -0.40890518
    1   -3.45499134   -1.61921919   -5.00931426     -7.98635213   35.07524567  -71.69810124      1.23241594   -4.20457356    7.37816323
    8   -8.48358985    2.88226576   -7.72548273   -126.17362588 -113.11911544 -107.88550849      0.48979520   -0.09059770    0.09693198
    1   -7.67381277    3.02658456   -7.79944970    159.31390677   33.27208841   -9.79000557     -5.96825839   -0.50398312    0.22709721
    1   -8.71483174    3.33943497   -7.05622556    -32.96251442   81.55072323  116.15330658     -0.06403611   -1.37626038   -3.02410575
    8   -2.89194174    5.68638035    3.18928666   -186.03497522  -89.17875130  114.04258010      0.25534499    0.16925139   -0.30368531
    1   -2.39477779    6.29488039    3.32304596    129.26945234  150.00951031   26.06231091     -3.35466122   -4.36128957   -0.56870462
    1   -2.64729226    5.36324981    2.46951405     54.95947258  -56.76021456 -141.54447461     -1.68057138    1.78482413    4.86235083
    8   -4.66385844    5.32002654   -6.37704919     11.63761854 -204.27958289  -32.89610032     -0.20638754    0.84412443    0.20161238
    1   -4.03159668    5.80863614   -6.66020797    100.58777441   81.96382073  -44.99368517     -6.05593396   -4.35536977    2.19466585
    1   -5.17757866    5.85064275   -6.05432426   -115.23653197  123.44423775   72.58526286      8.19826959   -9.24611103   -5.96290168
    8   -0.99099016    8.99757791    6.98938873     71.00767690 -297.35730105  158.47557794     -0.55581005    2.27102993   -1.26575583
    1   -1.22302817    8.74356727    8.15661833     43.76566440   59.37909974 -235.23940096     -5.03664970   -6.66151565   27.26674068
    1   -0.47437125    7.93350533    6.62013327   -110.79954693  234.28598577   70.90457037     14.34256401  -28.96930998   -9.13690829
    8   -9.15029705    6.14698152    1.80267344    -32.85513264   34.93719594   -7.52663149      0.18830153   -0.15501546    0.05534552
    1   -8.33152298    6.17576124    1.32809887     27.37140134    0.64570240  -16.72726043     -0.76509299    0.37115863    0.60706437
    1   -9.04452055    5.37781148    2.32581185      4.28306344  -35.06375850   23.29688211     -0.05547351    2.57902643   -1.51005150
    8   -3.95138170    8.70693373   -9.49233919      7.71160853  -11.45240666  -11.47255996      0.01605447   -0.16967751   -0.19546169
    1   -4.36999992    9.54223846   -9.72848525     -7.69287908   11.73845755   -3.72160619     -1.76726743    2.31525163   -0.41351244
    1   -3.93127540    8.76483668   -8.53475871     -0.22958336    0.27648323   14.01551080     -0.29294688    0.06887797    3.53397021
    8   -8.88118616    9.35464623    8.57490849    -72.97784260   95.71882863   -0.01936473      0.41219326   -0.08428338    0.50356089
    1   -9.69044692    9.51102558    7.91060072     64.99197730  -13.82938507   52.49467064     -5.80898106    1.15039679   -4.54158157
    1   -8.99161277  -10.16034273    9.23905154     11.91637140  -73.71112298  -56.84080592      0.23405360    0.38432863    0.13260190
    8    0.75284246   -0.94982029    4.38498618     22.89848644   88.04315878   -9.02383578     -0.33960814   -0.98091734    0.05084167
    1    0.72299994    0.00031686    3.93381997      2.63000137  -75.46110665   36.35640174     -0.03245455   12.16758263   -5.80726546
    1    1.39695069   -0.79451698    5.14884615    -22.52714708   -5.27362127  -27.18399811      5.36853290    1.57584463    5.86237736
    8   -4.44900861   -9.13415944    6.35170568   -110.79598751 -145.67919695   34.74140204      0.62313515    0.71090941   -0.15462353
    1   -5.42325434   -9.63307153    6.68754130    145.98212333   77.44099259  -49.31826341    -12.69061252   -6.66015110    4.03891171
    1   -3.88038102   -9.97768900    6.10492085    -42.08563401   63.47293188   19.08764711      2.90272375   -3.73930548   -1.67790000
    8    0.49480997   -3.87332740   -8.99943574     63.99007298   -3.73435410   65.73932618     -0.27864933   -0.07601970    0.05022594
    1    0.72989700   -3.16083265   -8.26292025    -18.70716256  -49.40075049  -52.41122244     -0.08394953    0.78376046    0.34344131
    1    1.03294676   -4.70955621   -8.68828698    -39.59962972   56.51069270  -24.05155659      0.26304360   -1.05963966   -0.19425879
    8    1.95386204   -4.77631828    5.49838271     -1.65080003   22.21707336   95.92859357     -0.22695504    0.03605909   -0.42202082
    1    2.52941228   -4.80619445    6.38914745    -47.76753107    3.01141935  -73.85488231      4.93786994   -0.04500355    5.28394105
    1    1.06857922   -4.38115015    5.84282948     49.78641097  -22.44194344  -22.15428988     -0.74200285    0.50699548   -0.99276154
    8    4.88342458    1.73054621    8.95447557    -89.56779767   -7.72857770  -23.02486169     -0.27238373    0.02349024   -0.02062702
    1    5.39677685    1.20511959    8.38091308     27.66954315  -26.65721925  -28.86111594      1.53725709   -1.81621685   -1.89827779
    1    5.50277121    2.07783748    9.49851663     60.26528007   33.54355686   52.86618248      1.01922315    0.86024365    1.33958695
    8    8.75260748    1.46941305   -4.05168058    141.99889164   26.49600822   63.02652937     -0.01603116    0.17179559   -0.32114901
    1    8.46511395    1.59884189   -4.86465722    -43.72705882   15.70262117 -108.03215107      2.54466296   -0.64671659    6.01038348
    1    8.07588626    1.07596045   -3.65934983    -89.53598973  -49.75534114   46.88025436     -1.44199327   -1.67307273    1.37122510
    8   -9.64365665    7.91598766    5.46071541      2.38721889  -11.60769934  -41.16282662      0.20648402   -0.47983085   -1.15286619
    1   -9.97281787    8.62191711    5.99492543    -11.52902748   25.25703116   22.67717377     -5.69891105   13.11178371   10.90445521
    1   -9.22183613    7.33572522    6.09056578     10.68461046  -13.38931048   19.09317800      5.18599280   -6.58718072    7.85397005
    8   -8.40088291   -2.63143377   -8.78088957    -58.28561768  -22.23759321   29.20327278     -0.19013415   -0.34714324    0.09742744
    1   -7.71813367   -2.34855655   -9.32185924     51.60100349   20.58342317  -40.26618454      1.59815834    0.82194736   -1.87201141
    1   -8.18331756   -2.20050628   -7.94911689      3.98817735    5.35572191   11.90462794      0.68289098    0.55986437    1.92007181
    8   -7.71658619    4.01731212   -3.50848630      3.54619460   12.43358899    6.71985349     -0.04529570    0.34519515   -0.20273899
    1   -8.24439542    4.22134348   -4.30842535      2.01960077    0.44522512    0.98385167      2.90188695   -1.01996063    4.75135441
    1   -7.30118191    4.88905111   -3.28435091     -6.83168755  -13.72250272   -5.05898014     -2.58352958   -4.76972381   -0.91063418
    8    6.18711648   -8.44359318   -4.27747340     51.86504292   10.11926655  -62.94139057     -0.08146820    0.75697582    0.22390021
    1    5.51221030   -7.99253467   -3.86974482    -55.61376765   33.10346030   37.15039962     -1.91968406   -4.18193651   -0.61379976
    1    6.29411700   -9.18919874   -3.73877306      2.22608704  -39.30447226   31.30014364     -1.01501933   -3.68519486   -5.37590954
    8    3.51064387   -2.31663177   -8.73952428      4.00689070  -13.94113810  -44.12959114     -0.10340796    0.02198909    0.04247473
    1    2.63940947   -2.08875304   -8.44760496    -27.89573813    7.19446047    8.65413527     -0.04226844   -0.03341085   -0.30708199
    1    4.02095767   -2.12217129   -7.97514741     23.30565278    8.78564414   33.98241336      0.63545074    0.49490076    0.56588274
    8  -10.13999882   -3.85659113    5.93654124    -13.75279979   -2.77853391   -6.84462057      0.19318120    1.01993251   -1.16997624
    1    9.64503648   -4.52240670    6.39440791      1.82220053    1.90010072   -1.21371501    -11.15519876  -14.14799588    9.83455654
    1   -9.33933472   -3.85059229    6.47802391     11.49391614   -0.29301364    8.17942718      9.26789988   -0.83064179    6.43033341
    8   -0.82532897   -1.13364191   -3.57256408      3.91528172  110.59927969  112.96225934     -0.06576639   -0.31066661   -0.68338116
    1   -0.65328843   -0.06724992   -3.70442030    -18.67896661 -114.27188923   13.18435271      1.25438568    5.74149667   -0.34054499
    1   -1.02548597   -1.19015650   -2.48818687     21.48928414    4.53276167 -126.84138164     -1.90481649   -0.30367117   11.11096644
    8    0.12575248   -6.64927446   -1.85601725    324.53729282 -180.43118814 -107.27280930     -1.65309701    0.92364827    0.05166597
    1   -0.36563225   -6.61930027   -2.45948711   -138.39624471    9.59353693 -165.95376035     10.66123256    0.05270921   16.02914515
    1   -0.19514780   -6.35280747   -1.39199542   -186.76542210  171.52429746  267.12295925     11.59646872  -15.53477389  -16.14624577
    8    2.80321106    7.93022608   -0.47809293    223.94406767  230.53193949  -60.61381931     -0.19158506    0.32948678    0.73426836
    1    2.11700319    7.85039717   -0.29342823   -267.95516012  -59.53090936   72.70475953     -6.30487801   -1.18002178   -3.00026673
    1    3.14570334    7.19912777   -0.51398403     54.32300203 -174.65046259   -3.78042434      6.46601629   -5.68615571   -4.30102205
    8    0.44007696    5.50842590   -2.06454770     58.16792331   -8.17477236  -83.25803218     -0.38215626   -0.09243913   -0.23193481
    1   -0.19833078    5.07303897   -2.71786311     27.47207317   19.80057007   29.05715084      2.03851600    1.12001884    2.08131000
    1    1.29184780    5.71644863   -2.68281820    -78.34123642  -18.55654633   59.32541030      3.25196987    1.03655447   -1.29646917
    8   -0.43864825   -7.71282544    5.03912755    183.09625896  -67.58407458   -7.65048810     -0.64945681    0.35002662    0.15256887
    1   -1.02291199   -7.93864872    4.45999652    -98.48902863  -31.26692654  -87.10288050      4.33300594    0.93152134    4.33797018
    1   -0.83965488   -7.21092183    5.56303345    -84.12914054   95.61841147   96.79700887      5.34946072   -6.00367465   -5.62281442
    8    6.60320702   -7.86462659    2.97087740   -408.84961501   78.68952942 -114.39978920      1.63812988   -0.30530762    0.20526928
    1    5.52666438   -7.62039560    3.66554380    279.09476853  -73.08585971 -175.27708187    -16.60143271    6.19665776   12.97858911
    1    6.12141048   -7.86410961    1.77794311    119.74622307   -8.74518280  298.38387458     -5.44428059    0.66869469  -18.41299458
    8    8.74718895    1.49984976    8.44334626     62.66550333  -86.11229075  -80.25058263     -0.17558972    0.55322609    0.27274299
    1    8.20523506    1.78817720    9.03991469    -80.55169296   44.78990506   91.31468529      7.44086585   -4.20797035   -7.89878794
    1    9.12357239    2.29242278    8.11572941     18.60536156   40.09324097  -15.53893000     -2.45587664   -5.33041514    2.03688989
    8    3.52203540    3.39021334   -4.33593255    417.00155402 -235.33370338  115.17921922     -2.12523079    1.28570845   -0.98225652
    1    4.62014855    3.48658660   -5.05226638   -293.24206691  -21.12513869  192.00455261     22.35395938   -3.40160262   -6.96788781
    1    3.93044596    2.54338819   -3.32335455   -113.59000549  260.60040325 -303.44451061     11.05250403  -19.88896301   20.62431034
    8    6.47178256   -7.92286758   -8.77747646    127.05166995  249.72149314 -257.64937183      0.60668380    0.74199809   -0.06551954
    1    6.58852693   -8.22821049   -8.23950118     92.37246888 -169.34731128  321.56573874    -15.65170079  -13.90008993   -4.61157267
    1    5.80224225   -8.22600493   -8.92544852   -220.33010279  -86.55357759  -70.61270228      5.23558889   -1.55788576    5.75444842
    8   -4.55799932    0.43247676    9.61584604   -174.39333830  104.84567009  177.43026736      0.82176190   -0.62584203   -0.97039064
    1   -4.18816148   -0.24315239    9.53256888    112.66623180 -193.77121427  -30.09052725    -10.47538018   16.87930347    2.91274673
    1   -4.35116233    0.84769751    8.94885049     52.10374077   84.72439749 -148.95415240     -4.59219581   -7.38501163   12.84203142
    8    4.92679981   -1.93304904   -6.48821971    -22.10552824   78.23802747  -23.36885771      0.05132469   -0.27596481   -0.18562887
    1    4.95989340   -1.77002042   -5.54935211      1.00362667    4.34847407   27.74386321      0.12540414    0.51357678    1.92952884
    1    5.15361864   -2.80350957   -6.52667979     21.27180846  -80.28781680   -2.95479500     -1.01431528    2.75266434    0.80689377
    8    5.74494075    8.78943753    2.31778702      3.98405557   30.68010927  460.59947536     -0.10292855    0.06288657   -3.30629709
    1    4.93889328    8.36177584    3.29208109    221.60278626  113.23687741 -273.14106650    -19.10631551   -9.40102189   29.94539902
    1    6.62008997    9.43171317    3.02598724   -223.83062159 -160.30997659 -180.76816339     17.37079449   13.70292068   22.46099945
    8    0.43966096   -8.83484673   -6.68214731    -65.49769033   42.12466944   32.61969222      0.45935577   -0.65012176   -0.16482197
    1    1.33829151   -8.73152994   -6.55801902     67.57551688    9.67032605    9.81349419     -6.28893356   -0.60250173   -1.11775116
    1    0.41932258   -9.58401531   -7.20870537     -3.29293655  -52.39945325  -38.64129584     -0.08020838    9.31709092    6.31296740
    8   -0.85451744    4.42794550   -4.35088676     27.33518501   67.33872222   15.56206458     -0.78597225   -0.09807372   -0.22473792
    1   -1.14469526    5.40911886   -4.35854175     13.66845840  -43.88801879    0.93970364      1.26775696   -5.44423249    0.13787218
    1   -1.62347295    4.01639259   -4.69234891    -36.01156458  -21.11087759  -16.26907192     10.07166961    6.35616485    4.41770425
    8    4.67515286    2.57772253   -8.11909361      3.86755405    3.42780873    3.75524192     -0.05191731    0.04330335   -0.03633543
    1    5.17822202    1.74259707   -8.11341696      1.84501665   -4.02358921    0.25221071      0.92814999   -1.08493910    0.15474679
    1    3.75545594    2.26953116   -8.02716450     -5.14396387   -1.27988696    0.67385135     -0.04210311   -0.27773532   -0.01229118
    8    2.78536304    5.77009558   -3.45139461     42.97251545 -169.91344766  -63.36988082     -0.55830305    0.83119878    0.83345540
    1    3.09140821    4.74408599   -3.87598696    -44.51496239  156.79762303   67.49722418      4.45187653  -13.70743628   -6.33287877
    1    3.09697572    6.37794130   -4.14589253      1.02565327    3.67326553   -1.55075202      2.68755017    2.85761133   -4.07868106
    8   -2.93509231   -3.14551016   -7.38146370   -222.11920778    8.51707327  -30.36718878      0.41280618    0.55987956    0.11027068
    1   -4.06550741   -3.39759135   -7.65756578    208.68258358   45.83800021   47.65806328     -5.34250707   -1.12545882   -0.71846187
    1   -3.03045077   -2.16731957   -7.06220556      7.27257882  -57.52688950  -19.07047188      0.40334628   -5.31324165   -1.82549485
    8    9.72099321    1.12060571    4.74114905    287.10677514  231.55690906  -23.63237627     -0.96736812   -0.75331439    0.12826344
    1    9.04109982    1.13254371    4.77246210   -321.57610200   -8.90512330   16.57137832     17.88072019    1.39895504   -1.76268793
    1    9.91207855    0.38182172    4.76366211     44.61484193 -227.78544266    8.52517979     -1.51406532    8.40247191   -0.81639543
    8    7.25924125    8.88685867   -8.40351653     31.25376707  -88.78364626  -34.72786233      0.67833068   -0.34947766    0.51456559
    1    7.17761205    9.60934669   -7.87669368     -8.42446931   68.29263569   48.01695325     -1.07966174   -1.95072370    1.34816466
    1    7.85875711    8.28825458   -7.85308486    -19.69805589   18.28259727  -18.77745570    -10.72680609    9.06066488   -6.63449573
    8   -2.87597778   -3.46464908    2.96365916    -86.21375509  -84.11055198  -87.47569575      0.27944921    0.21998294    0.23426508
    1   -3.21344530   -2.73907560    3.33368726    -38.18796221   84.59574678   43.85048919      0.55303742   -2.98530575   -1.74354935
    1   -2.07101911   -3.45938450    3.25566039    122.44010256    1.51030581   44.86646287     -4.78884695    0.14652457   -1.44084098
    8   -7.29281316   10.14704266   -8.77443708    -61.89068305 -163.76681578  143.73919790     -0.02349159    0.61986819   -0.55132790
    1   -7.84239460   -9.75822391   -9.21968173   -100.09204417   87.19882946  -87.02496628      4.71339844   -4.75847433    3.03891897
    1   -6.57991798   -9.90397951   -9.00169568    164.13137170   72.76959994  -57.33406864     -4.88280559   -3.10270337    1.47262369
    8    8.43579782    4.08563935    1.47723272    -27.71156346   36.62551943 -201.42765086      0.01954755    0.31100172   -0.10810999
    1    8.16698307    4.41449634    2.16629063    -54.54010667   67.04214135  155.42470675     -3.04585276    0.99772500    0.45668708
    1    8.92758007    3.43854692    1.71675176     79.09670208 -103.07097897   46.71052945      3.41578348   -6.29042192    1.63820349
    8   -7.85941802   -3.79825478    7.34062331      3.94821209   -9.77437490   -8.18462685      0.11918131    0.13511522    0.07315980