 BEGIN_INFO
   #
   # This is a XCRYSDEN-Structure-File
   #
   # aimed for Visualization of geometry
   #
   # Launch as: xcrysden --xsf HICOLM.XSF
   #
   #
 END_INFO
 # estrutura final
CRYSTAL
PRIMVEC
      20.52482593       0.00000000       0.00000000
       0.00000000      20.52482593       0.00000000
       0.00000000       0.00000000      20.52482593
PRIMCOORD
  927    1
    8    4.43403903    3.19836302    2.00850431     11.70026962   18.03372419   25.91415639      0.35578500    0.70570385    0.21498829
    1    4.94318407    3.06379162    2.86757628    -15.83367376    4.75266354  -26.46242159     -1.40234937    0.33931137   -5.14197669
    1    4.22132888    4.17635627    2.06553302      5.40962780  -23.32725576   -0.94183082      2.39385926   -5.63779197   -1.78527993
    8    9.14817679    7.38069158    0.77209005      2.85478941   -7.68908559    5.38589542      0.09788648    0.10053121   -0.08998731
    1    8.37395751    6.85244479    1.05374154      3.73408427    3.13447134   -1.46657084     -4.52740534   -3.11990756    1.33530944
    1    9.90423151    6.89512507    1.18417652     -6.65427778    4.87661384   -4.71500900      7.81882438   -4.85503092    4.81786682
    8    9.62680109    9.99936556    6.89138123      4.81199553    4.48656781  -10.17046174      1.12540129   -2.80368726    1.81282421
    1    9.73127701   -9.86734683    6.15409769     -2.05332898   -7.05705245    8.39677188      1.93889862   20.50159936  -19.56891164
    1    8.96883164  -10.08430234    7.46517378     -1.26355330    1.56085520    0.05405901    -14.79164810   13.65052207   10.70729482
    8   -1.21093027    6.61541869   -9.16650562    -21.35476734   16.31471322  -52.43282410     -0.33077627   -0.07004614    0.63242936
    1   -1.80559910    6.82032278   -8.45984496    -20.13311844    6.41568463   27.04507893      7.26211831   -2.12256758   -7.14993642
    1   -0.49129969    6.23235250   -8.72047466     39.91657877  -21.75327706   26.87249214     -3.93325226    2.49312576   -0.60372028
    8   -9.06040409   -8.80594591   10.13111026    -28.99032659   91.58506194  -41.07217729     -1.00378569   -1.36261857    1.04734495
    1   -8.58346500   -8.17589218    9.42283744    -36.25122626  -53.32253710   57.41574709      6.47159943   17.13257988  -16.66750615
    1   -9.95538850   -8.27856947  -10.18545511     69.58836808  -43.56065485  -14.46691776     -6.29981392    5.55217211   -0.54944924
    8    4.76064971   -1.45998288    7.14261879    -13.94717635  -13.45217082   -0.33068156     -2.08542300   -1.18936160    0.27500665
    1    5.42536800   -0.76531139    7.21357466     12.87225397   12.21425754    1.10408078     18.05238958   17.83597137    3.38439327
    1    5.24081270   -2.15899074    6.65915574      1.91846016    0.17276803   -0.43534921      6.30162712  -11.04664951   -5.67502213
    8    3.17213022    9.85015133    7.15566756    -67.89387524   46.28955262    3.15548771     -0.79597749    1.22549597    0.54879723
    1    2.30265684   10.10046785    6.62598303     59.68934575  -18.19334354   34.76317562     16.00852456   -3.84510649    7.72535205
    1    3.08024417  -10.06322384    7.96994424      6.47586871  -28.86307322  -37.52370949      1.74824655  -13.10436590  -17.83176065
    8    3.61011289    7.50928134   -5.46943612    -28.57240299  -31.92169804   17.17639654     -0.37782474    0.14953392    0.90380011
    1    3.78838397    8.38808820   -5.17342656      7.64739577   34.19097697   10.63105288     -0.32877046    3.80692019    1.45014764
    1    4.19316538    7.41370114   -6.21020628     22.74671476   -2.34987142  -27.58467150      9.72808227   -3.90069908  -13.69636116
    8   -2.59389221   -6.21904290    9.34679609    -25.36105880  -10.03079865  -24.01850578     -0.33522781   -0.65382924   -0.48999235
    1   -2.58319325   -5.34826684    9.74913289      0.91931221   18.60720106    9.40266236      0.82378455   27.60772760   11.61410728
    1   -1.81549266   -6.61963750    9.72411814     22.37864316  -10.24845715   11.65822382     17.23330603   -9.01592668    8.84885601
    8   -2.21918704    1.60116912   -7.04711032    -11.08447664   12.55969987   -5.37999688     -1.43854463    2.47282207    0.27947164
    1   -2.48118469    2.29146041   -6.39119249      3.00592413   -6.79488551   -5.94903079     11.70642211  -30.05662954  -26.46946120
    1   -2.68665322    1.90552388   -7.86677122      5.97205747   -4.27667492   10.10284250     15.98906122  -10.93060435   28.53185189
    8    1.47890454    5.18634283    4.25067109     -2.51796174   -2.42713043   -5.28912498      0.09020651   -0.60546024    1.34091646
    1    1.64354757    5.85997441    3.55414234     -0.87121776   -2.05117349    2.07106129      4.67361707   14.00094408  -16.38705991
    1    0.93267548    4.53860539    3.75757470      3.84017473    4.90486079    3.34816352     -6.57415162   -9.09086166   -6.80121833
    8    7.28536531   -6.01719523   -5.00236154      1.25914078   -2.83399926   -2.30821308     -0.36011965    0.78494598    0.29547987
    1    8.07932784   -6.05033069   -5.57380860     -2.74079176   -0.57710031    2.28717708      3.10906639   -0.20456955   -3.28037372
    1    7.09798295   -6.96094028   -4.81798665      1.32941297    3.15150626   -0.67194267     -4.13153582   -6.15701573    1.79750028
    8   -8.82822460    8.62033593    3.11957723    -25.66674051  -52.14386719   41.70129831      1.29848022    3.26307676   -2.13238066
    1   -8.92563485    7.76621049    2.59245181      4.30533070   30.82471021   15.40504401     -2.02847732  -28.52299100  -19.49033680
    1   -9.15727607    8.30985187    4.05738134     20.24809672   22.72663558  -55.15145573    -14.10784834  -13.29811560   44.96051708
    8   -2.10218527   -8.41886538    3.05233428      3.00702555  -17.05297372    0.34141867     -1.43435522   -0.72318896   -0.88168879
    1   -2.70450289   -9.03586369    2.57101574      3.92058336    8.33717226    3.56693814     17.16209996   16.21909825   13.01737282
    1   -2.52159490   -7.55865805    2.91065706     -7.26911120    8.49819364   -3.96004496      4.58656418   -7.70771493    1.50099213
    8   -1.50365688    4.22129462    6.60595520    -26.13884321  -14.59470500  -43.33611451     -0.73411373   -0.12400871   -1.01421993
    1   -1.26200103    4.63642788    7.39552542     14.90007502   25.02782536   48.17691961      3.63624886    7.06007426   12.32443411
    1   -0.74061390    3.66091823    6.42770052     12.78173052   -9.37606423   -2.89501832      8.04037125   -7.07117576   -2.84191268
    8    2.75138044    1.05418935    1.72218528      1.22026492    2.14464908    6.56876548      0.18573949    0.07315746   -0.70570820
    1    3.34729124    1.82877558    1.78787972      0.11437649   -0.30296811    0.12443757     -2.29121363   -4.59478652   -1.75428358
    1    2.69057581    0.91413479    0.76311314     -0.43665384   -0.96562416   -7.59424259      1.11422131    0.07179198    4.64590449
    8    2.12057230    1.85774990   -7.82297621      0.65839408    3.19448011    0.01201782     -1.65235465    0.04689658    1.45990427
    1    1.49707510    1.18066967   -7.50050191     -1.17359300    0.89614341    1.31137163     11.72507440   12.79433728   -6.15306250
    1    1.85015895    2.63698285   -7.29894451     -0.69991428   -3.29605911   -0.41900120      5.64842997  -15.31669309  -12.12599914
    8    6.04163639    0.22996077   -7.72282476     -9.80250263   14.76267892    9.62875688     -0.43052980    1.60395511    0.24890723
    1    6.59460629   -0.33980481   -8.26055850     12.78791299  -11.66103114  -12.87908760      2.66589164   -2.91176512   -3.30658038
    1    5.54831522   -0.42884510   -7.20692052     -3.64218389   -3.24220396    3.39815755     -6.75836959   -7.74759844    6.02848318
    8   -0.29143090   -7.12752882  -10.06501367     -4.02294641   27.91557381    9.61774647      0.34585418   -1.34734397   -0.97775009
    1    0.57414916   -6.79162143   -9.75524248     -0.33791310    0.54316430   -0.18180282     -3.73978561   -1.78310982   -1.90995859
    1   -0.09250994   -8.02991684   10.23522601      5.94969140  -27.86804131   -7.57995205     -5.77709726   23.19758883    5.14219649
    8   -4.02153721   -0.26787211   -2.24808602    -22.54805156   16.12694481    0.96110263      1.37743196   -1.17161623   -0.67099864
    1   -4.01254389   -0.91286816   -2.96016792      0.72765979  -11.42227860  -11.94708743     -0.22864277   15.16049600   15.74476437
    1   -3.22012473   -0.48021956   -1.77928162     22.20667018   -6.34659071   11.78536718    -18.56541738    5.20254980  -10.88882320
    8    7.16548069   -9.49730778   -6.75649607     48.68252700   48.40068674   65.59767098     -2.20500397   -2.34368213   -2.77491189
    1    6.70321640   -9.22324928   -5.86887012     29.87367886  -16.41812034  -56.18761460    -12.33036495    7.07692359   21.37041556
    1    8.14643198   -9.11375857   -6.61406580    -76.63721033  -28.49027641  -10.74368489     27.19133873    9.50093921    4.03997642
    8    1.31350430    3.72876390   -5.94590338      3.85581856   -3.86881830   -9.05186550     -0.42076937    0.09442314    1.09606415
    1    0.61121844    3.98452249   -5.33455761     -7.63293353    2.96758398    6.80760991      9.54362976   -3.83931417  -11.19369754
    1    2.06711597    3.55135933   -5.35339455      3.52326011   -0.84579981    3.11030657    -11.82613317    2.90685214   -8.74484312
    8    6.34385981   -0.43931068    2.78262431     31.62330969  -16.27371309   74.55953230      1.63386172   -0.02929265    3.01280533
    1    6.71627417    0.02798034    2.08257280     21.88168322   32.32290215  -50.79413021     14.10280238   23.66906550  -30.29888520
    1    5.53057278   -0.72131133    2.45914555    -55.64173828  -17.29032833  -25.89646713    -34.43505190  -10.30974458  -16.33394463
    8   -5.17770253    2.26878150    5.39534979      2.64831476   -1.44967658   10.41987699     -0.23446825   -0.39445682    0.20844726
    1   -4.83562921    2.04858800    6.29206399     -4.04788915    1.84640353   -8.78145517     -0.70251928    0.31773795   -0.65458556
    1   -4.35571665    2.53100505    4.93912887      1.14879089    0.44044106   -2.00018203      4.93455013    1.63062799   -2.63209713
    8    2.38026116   -5.58677544   -2.94726715    -42.89647722  -16.57675697   11.84286491     -1.70257810   -0.66831624    0.69808255
    1    2.04959896   -5.29505408   -3.83052298      3.68279097   -2.79431079    9.17081280      0.75435319   -2.90786763    6.46379933
    1    1.53758585   -5.98270950   -2.52018929     39.52467928   18.59118232  -19.18782891     23.46941204    9.61514840  -11.41567078
    8   -3.74790430    2.34732755   -9.17188864     -1.88023403   -8.46671450  -13.87221936     -0.28757111    0.07359445   -1.36908932
    1   -4.03102746    1.56773060   -9.72262808      5.56627248   15.30623058    9.21588555      2.67071228    7.60129244    5.10666278
    1   -3.47908013    3.01416201   -9.85361794     -3.09323161   -8.27493238    6.22972688     -3.76362990   -6.84081415    4.82166999
    8   -1.18538790    7.67926888    3.68283548      2.11841034    6.32846016   -3.25719273     -0.30044373    0.00551426   -0.54322769
    1   -0.87586036    8.54201545    3.33614784     -1.84856899   -7.49846349    4.49107356      0.83368680   -2.45168664    1.76724790
    1   -0.67272017    7.55901377    4.49919956      0.50488258    1.60086789   -0.84593613      4.19974706   -0.47907130    6.90824859
    8   -8.93275871   -5.64566983   -2.09048554     59.06084905   -7.52929439  -76.30478079      0.86284280   -0.10538252   -0.47929090
    1   -9.07628270   -4.93743597   -1.52448865    -13.22477633   54.35769374   45.03342881     -5.13706427   18.18755626   16.06553365
    1   -9.48999282   -6.28176079   -1.74258554    -45.40525314  -49.87891110   28.12321031     -6.40098668   -1.94685323    5.67767511
    8    2.59389510    6.17143394   -9.81880084    -14.61181442   67.18204691  -91.16327734     -0.87743936    2.25915197   -3.14145538
    1    3.37869025    5.76900967   -9.61435177     66.27258113  -38.55698685   22.15769510     33.65934046  -19.66224701    9.66074966
    1    2.04007026    5.92011548   -9.16363781    -52.60855814  -29.72948037   69.01268566    -18.14923705  -11.19024246   24.20672241
    8   -1.55984595    8.70734623    9.65686700     -9.83324336   -0.07707861    3.77458445     -0.29655352   -0.19737378    0.67326330
    1   -2.48149991    8.85359853    9.97419660      8.94265401   -1.04437261   -3.77422836      7.66846601   -0.06778234   -2.69064756
    1   -1.28105670    7.96966259   10.23615337      0.33939495    1.36120251   -1.58784896     -2.37449419    6.85433154   -5.50374955
    8   -3.41973843   -2.04671025   -4.21766879    -14.00521939   -6.15668405    4.90844461      0.13254931    0.52517901   -1.09735316
    1   -2.47618572   -1.95489644   -4.05916893     15.09326357    1.13425950    3.03756950    -12.92534438   -0.87931192   -1.98514599
    1   -3.51725318   -1.63564349   -5.09102724     -1.27065928    4.02246062   -8.01515514      1.40232699   -8.82593190   20.28971608
    8   -8.58029554    2.87297605   -7.80702032     22.04382786   19.83512728   23.32606248     -1.63101595   -1.34012999   -1.06760831
    1   -7.59284682    3.04556783   -7.88756714    -28.38232480   -5.11966365    1.78811029     20.60338320    3.67968023    1.07548836
    1   -8.82149958    3.42856305   -7.00282322      5.60406216  -17.07207479  -24.72123598     -1.90331954   13.36400421   21.00453239
    8   -2.88502370    5.69188471    3.20166470     19.93277779    9.38570351  -20.36599793     -0.26314904   -0.33361356    0.29510383
    1   -2.24435937    6.44884366    3.36899726    -14.64850621  -16.61980463   -2.88368331      5.83311416    7.71250632    2.69670648
    1   -2.56688459    5.32959204    2.32370809     -8.96825839    7.78034140   22.72738618      1.82872874   -3.78414757   -5.33596095
    8   -4.69800562    5.32157289   -6.47303839      1.28976697   12.80548252    0.36706113      0.12812611    0.07949804   -0.24838460
    1   -3.97984956    5.90481575   -6.80540184     -5.35339596   -6.17331762    2.44149120     -5.04452234   -4.22230828    1.96978034
    1   -5.32342184    5.97959634   -6.09079831      4.17268387   -6.04084423   -2.49627499     -3.57677202    0.87389225    0.87618303
    8   -1.02463853    9.02812864    7.02836681      3.32676141  -27.93260041   20.76205141     -0.93145478    1.04375115   -0.84723092
    1   -1.20147240    8.86984763    8.00806420      4.81203737    4.60468802  -28.14653586     -2.29823663   -4.27461496   15.25693444
    1   -0.59128093    8.17213714    6.73431722    -10.78452217   21.93466178    7.04922476      9.60739716  -19.16836185   -6.25451533
    8   -9.14785128    6.20668240    1.83219844     20.26171077  -12.00457944   -0.54808994     -1.61538286    0.27986142   -0.38679247
    1   -8.28851471    6.23234120    1.33112308    -16.94135599    0.07698612    9.34893522     18.52540088    0.58814901   -9.65919381
    1   -9.03542803    5.38887411    2.38077204     -2.53548048   12.76505777   -8.50811602      3.76763599  -15.10765046    9.60856430
    8   -3.99722949    8.79471178   -9.60640333     -0.12220704    0.93918859   10.02068302     -0.13408166    0.52205499    0.28403358
    1   -4.45257842    9.62741196   -9.83943126      0.59562859   -0.10696365   -1.69752221      4.14957800   -4.69890696   -1.32225922
    1   -3.98303882    8.85600340   -8.62764544      0.68123343   -2.14311753   -9.07639933      1.94081110   -1.66066617   -3.77302641
    8   -8.97074049    9.42609891    8.70257135      0.89101103   19.35896536   14.59004292      0.82947759   -2.31539611   -0.48056319
    1   -9.70762257    9.53428899    8.06818209     -0.03191232    2.50467179    2.74711700    -21.92965615    4.57974884  -17.26411988
    1   -9.07969370   10.21839016    9.30825314      0.47728130  -19.56632492  -16.96616700     -6.79361965   30.42785108   21.35649411
    8    0.76329505   -0.91982427    4.50598496    -14.69098301  -15.70937353  -10.13636930     -1.16294341   -0.83017606   -0.69753884
    1    0.74079010   -0.05926889    4.08236451      0.24189866   11.86779922   -5.39280039      0.55522005    8.24095028   -0.64308139
    1    1.39052769   -0.78260210    5.21723949     13.83038233    3.93182970   15.19630351     14.18110728    4.53997051   18.63232243
    8   -4.51370163   -9.21621180    6.42115113     -9.65317625  -23.72322576    3.63098192      1.28010533    2.22013697   -0.46678656
    1   -5.36685903   -9.63832466    6.73380518     20.52546888    9.41092734   -8.35213274    -25.80694931  -14.61832382    9.42755413
    1   -3.97420632  -10.01342033    6.18745811    -11.10019416   14.62410101    4.51748987     10.02148299  -16.91548609   -5.63717945
    8    0.47308110   -3.92749817   -9.08070273     -1.10016372    0.80008463   -0.78348384     -0.25131632    0.35473323   -0.98083142
    1    0.68642551   -3.27983403   -8.37790986      1.44993424   -0.31012612    0.79475029      0.47321926    1.83383181    1.04106220
    1    0.98034774   -4.71887807   -8.82441404      1.11800925    0.18355689    1.01539490      1.79349995   -3.02643540    0.59142733
    8    2.01837291   -4.77898668    5.53384650     -0.70063476    7.47188638   48.72286511      0.75695291   -0.14870802    0.27448623
    1    2.56514995   -4.82384613    6.38948483    -22.12410835    1.41244278  -36.60551293     -0.20019353   -0.66174121   -1.33940837
    1    1.15174641   -4.41553884    5.86965626     21.99607173   -9.41674375  -10.44842737     -8.69714173    2.91956047    3.00759334
    8    4.90827956    1.77510899    9.07574758    -14.14563862    7.85345623    6.37754432     -0.93576817    0.77594459   -0.36556972
    1    5.42881315    1.24903914    8.46234353      9.49780782   -8.97799989   -9.90343888      5.92199500   -6.33204254   -9.27051336
    1    5.59025593    2.12181909    9.67475349      3.90080188    1.53648978    2.56672838      5.43118164    2.70021380    5.55620805
    8    8.82676171    1.43486615   -4.11765265     20.93930740    4.04499180   17.60440326     -1.44074060   -1.00833500    0.43299107
    1    8.47565642    1.57045363   -4.99796941    -10.15122419    3.23387183  -23.53522251      0.37757132   -0.07541750    2.50141558
    1    8.08028958    1.01950089   -3.66568644    -11.37593051   -6.78593291    6.20518104     12.95386080    6.78780046   -6.65955955
    8   -9.80202310    7.94176996    5.52944993     24.31987273   -9.18214142  122.16311864     -1.18183477   -1.10697541   -3.10748648
    1  -10.13881427    8.71944270    6.14368079     20.50154983  -51.39670256  -47.71735147    -13.23563084   34.97566746   30.12747072
    1   -9.31926194    7.30077472    6.25286497    -46.65633138   60.41492878  -75.24018605     21.20103820  -27.76578326   32.73405003
    8   -8.50459245   -2.63938142   -8.85230130     -9.52410886   -3.11394066   14.20763444      0.39207068   -0.08470055   -0.60089861
    1   -7.78357738   -2.34790392   -9.41800947     12.75450046    3.98884352  -14.07821430    -18.70544007   -7.55322252   13.74545237
    1   -8.24899082   -2.22431265   -8.00582015     -3.13814944   -2.01746811   -0.37483066     -1.59425390   -2.34677438   -3.00994296
    8   -7.75291585    4.04420190   -3.57213500     10.22113418  -51.70701725   34.45491524     -0.21056665    0.78216045   -0.43865960
    1   -8.26549989    4.23131837   -4.32185321    -29.88575776   11.28953363  -43.99215938      0.37514188    0.29330004    0.95885249
    1   -7.35754918    4.86312635   -3.37650396     20.35069117   42.12368851   10.35333145     -1.87933417   -1.10857891   -2.23774744
    8    6.25430673   -8.51268552   -4.34565540    -14.14909396   -7.53386794   19.33250675      0.07744251    0.99940442   -0.05377898
    1    5.49876225   -8.04121270   -3.89375669     16.21936945   -8.80791076   -9.71365673     -4.86551921    2.24204717    4.34427194
    1    6.35944736   -9.30410118   -3.75976698     -1.24724565   14.81045649  -11.31557967      0.79547338   -9.84013290    8.89463946
    8    3.57084083   -2.37360178   -8.79147238     -1.06812914    8.05379704   26.66586586     -0.11940202    0.30745719    0.37911057
    1    2.66132364   -2.13040512   -8.49300204     12.64578065   -3.71518554   -4.62043918      2.11606037   -1.61891724   -0.36460413
    1    4.10793544   -2.15834330   -7.97337394    -12.36896715   -5.41762186  -20.14372754     -0.31621295    0.52704583    1.13944808
    8  -10.22538182   -3.88897459    5.93497464     21.39269473   10.46136476    0.89544791      0.75655417   -1.25742843    1.93474097
    1    9.73388836   -4.53986614    6.36930444     -7.94925010  -10.15885985    7.43592770     18.44362250   25.02103588  -17.07754840
    1   -9.40289417   -3.90931704    6.49312131    -12.59600130    0.07631503   -8.49981634    -23.89203152    1.81047634  -16.62462561
    8   -0.88044555   -1.14233095   -3.55753700      2.89007833  -33.15454867  -45.81478639     -0.22327435    0.04410811   -0.05800433
    1   -0.73264140   -0.22070087   -3.69739083      5.62817155   34.67199880   -3.88480601     -1.04122620   -2.41535969   -1.13927283
    1   -1.06717595   -1.18655914   -2.64519979     -9.96609402   -1.37466449   49.89529158      0.03047954    0.25320481   -4.19588909
    8    0.16503095   -6.66210852   -1.85305812    -50.24433235   21.41582331   -9.33081330     -3.02639856    1.82453860   -0.25171589
    1   -0.47721420   -6.62039993   -2.65116817     29.24307986   -0.89252158   39.25143667     32.39952964   -1.22667368   37.40231121
    1   -0.36834369   -6.19139829   -1.12367520     20.82144549  -19.05231899  -31.07771339     29.06755244  -26.13080313  -38.83166940
    8    2.89322937    7.97503352   -0.49571666    -25.07663249  -18.95056938    6.78555644     -0.33908380   -0.47328006    0.00655330
    1    1.93605247    7.81003595   -0.22416778     29.83190877    4.95245883   -9.10465138     12.32042683   -0.53058915   -3.06788480
    1    3.24883231    7.05374378   -0.58058046     -6.19798982   14.98822845    1.69417763     -4.09524516    6.15488195    1.61329120
    8    0.48880497    5.68513686   -2.11712512      2.13780134   -1.45998747   -9.19728966     -0.48387792   -0.38911748   -0.28841684
    1   -0.14997812    5.26733577   -2.72790651      5.45527819    2.95072149    4.58236253      3.30099083    2.94110378    5.09863909
    1    1.27246885    5.84038571   -2.69427721     -7.16087595   -1.90252438    5.18250851      0.22630896    1.13493422    1.80905405
    8   -0.40633281   -7.77706735    5.10286608    -17.93875968    2.10194693   -5.30730487      0.24160668   -0.59004753   -0.63324349
    1   -1.09590859   -8.02358073    4.42835654     13.30423309    3.28677986   11.31569959      0.54500734   -0.91754572   -0.87555918
    1   -0.90704560   -7.18736176    5.71884759      6.64512275   -6.65729166   -6.38719954    -10.09442261   11.41888093   11.79061755
    8    6.66151203   -7.94089540    2.94071465    -44.82651733    3.33966835  -10.95065854      1.00384048   -0.11063762    0.42233531
    1    5.81032981   -7.81196003    3.47659267     31.83831485   -4.77573539  -16.86625650     -9.62067084    1.87403376    7.22187012
    1    6.30299664   -8.02276952    2.00086464     13.29619888    2.43750573   29.01590038     -6.16161489   -1.85243746  -17.27572029
    8    8.77397125    1.55312373    8.47935654    -15.29192488  128.21429766   39.24805855      0.17761374   -1.19932480   -0.92694426
    1    8.11038641    1.91881386    9.23865320     59.74153008  -35.09924810  -69.58538796    -10.57034542    7.60673771   12.53856313
    1    9.21141999    2.47664780    8.13055566    -41.89905963  -90.81130118   33.45617458     -1.02578229    1.07470988   -0.05587610
    8    3.52200805    3.40395540   -4.41770622     21.09394627  -15.11613501   12.79399726      1.48570194   -1.07965259    0.92508392
    1    4.34765770    3.52581254   -4.95194758    -10.81458467   -2.39740102    8.03339916     -6.49275968   -1.17557789    5.09951141
    1    3.83241898    2.79869632   -3.67810176     -7.41989046   16.17908207  -19.90970529     -5.40065968   10.63355844  -12.63010568
    8    6.58341865   -8.02371233   -8.93205562    -14.72208403  -45.41034810   44.15200633      0.64039202    1.33735007   -0.82019021
    1    6.77772064   -8.58120998   -8.07652692    -11.33256025   34.26969730  -51.89003781      5.99956491  -15.93913811   23.06040171
    1    5.69138959   -8.39656965   -9.21502523     28.82035537   11.90924372    9.40574582    -18.52022539   -6.63508494   -6.72857867
    8   -4.64634572    0.43961886    9.66463335     25.39634640   -8.86656006  -31.74447170      0.03442133    0.87646314    0.30281639
    1   -4.14611602   -0.43829116    9.57015698    -14.70747362   27.29115848    1.48080647      3.16305262   -2.83055317   -1.74825371
    1   -4.35113709    0.93239138    8.83038599     -9.64356568  -17.81447598   29.19756265     -0.84625867   -0.97575711    0.20143533
    8    4.97456397   -1.98324337   -6.51253425      6.32357543  -22.19265780    9.15142199     -0.12226713    0.69913133    0.58341846
    1    5.02633755   -1.81636452   -5.53939377     -1.03715434   -0.48727348   -9.97930428     -1.90101114   -0.74865121    1.99466500
    1    5.21972127   -2.95326314   -6.55122294     -5.84925787   21.90569130   -0.38310773      1.61946370  -10.51704874    0.14495831
    8    5.73003850    8.88901348    2.32764313     -6.28014833    0.64429189   48.37592806      0.05826936   -0.00258515    0.47801511
    1    5.13177494    8.53639696    3.07832705     27.60725964   15.62249119  -33.60892486      2.81234521    1.81334909   -2.46237133
    1    6.42475242    9.40682079    2.83766816    -21.21164922  -16.06092614  -14.69722926     -4.76645299   -3.80256347   -1.51966865
    8    0.39520010   -8.90749516   -6.68360556     36.96813836  -23.43468276  -15.93231219      0.02998932   -0.56541483   -0.46618023
    1    1.39333742   -8.77484850   -6.57634055    -36.75760372   -4.98031398   -4.32947665      6.78591965   -0.88069516   -0.85066355
    1    0.37646198   -9.73494092   -7.26313763      0.65584653   28.38168852   19.46487368      1.99820538   -5.08659812   -2.37547744
    8   -0.84025037    4.53512291   -4.37542809     -7.91764501    7.04063975   -1.61966770     -2.00863287   -0.03626259   -0.72519055
    1   -1.13001679    5.47742431   -4.39407831      3.50763709   -6.85616372    0.24864763      4.78732135  -17.25573188    1.01440657
    1   -1.65589234    4.08640288   -4.69301940      3.85962290    0.38214044    1.17539878     21.69764794   13.35943321    9.83975826
    8    4.68820385    2.58895322   -8.15434346      9.78181718   20.55935879    0.06959959      0.64502773    0.77451018    0.44266703
    1    5.17180146    1.75687624   -8.13112240      7.98037553  -14.49784687   -0.04081722      8.31749118  -12.38765388    1.98072390
    1    3.77429913    2.30175590   -8.05864188    -16.95008837   -5.97524860    1.48479090     -6.18221538   -3.01357534    1.88287680
    8    2.83143765    5.81171055   -3.53337088      3.65018195  -17.86467234   -4.39804735      0.03471557   -0.18660647    0.33853882
    1    3.06987224    4.92464013   -3.92174627     -4.89007035   15.58087248    7.97218710     -1.82668960    7.20139931    3.01191144
    1    3.13084260    6.43016530   -4.22907277      0.48475640    2.46103197   -1.12333047     -0.31588350   -0.04747053   -1.32524673
    8   -2.99467917   -3.20302896   -7.42756228     37.38807070  -17.99010945    0.14412316      3.61745759   -1.08194013    0.46538985
    1   -3.88784701   -3.42536722   -7.64913398    -32.51783357   -7.19253096   -7.28663623    -50.36092038   -9.49576798  -11.07746178
    1   -3.07673884   -2.29658593   -7.14442249     -2.88889088   24.95942404    7.80224423     -4.27555494   29.30822059    8.11675813
    8    9.75141756    1.17783011    4.74160771     57.78995135   52.83017758   -6.78970679      0.51528155   -0.21759201   -0.33822045
    1    8.83611399    1.15346703    4.79969301    -67.43599635   -3.47655623    5.03720021    -20.59178149   -1.54757725    1.91811455
    1    9.97902722    0.27829659    4.78624061     11.72062484  -51.37566517    3.14283942     -0.43570742   -7.61805133   -0.01459344
    8    7.30179889    8.90071981   -8.48888147     37.45554530   12.70642216   77.32057847     -0.65444319    0.14285719   -0.92031035
    1    7.19911327    9.74870266   -7.90400512      4.32566839  -49.04892323  -35.35140684     -1.23827776   17.18602935   13.06362345
    1    7.92389788    8.31691783   -7.88882743    -41.02838225   35.01011493  -40.23105059     18.89066781  -15.98774260   18.54898850
    8   -2.86135795   -3.50104816    3.00216773    -33.52298431  -34.55789336  -32.79135460     -1.30303954   -0.44439258   -0.73831282
    1   -3.21908224   -2.73812502    3.41332813    -17.87494591   34.23106175   18.14021664     -1.04515986    2.64805203    3.91082820
    1   -1.98526781   -3.47749277    3.30964268     50.39600921    0.00675965   16.45695269     20.21101807    0.94844613    9.46208709
    8   -7.35334729   10.23308480   -8.89660914     -2.70712444   95.71047938  -86.78805993      1.09777956    1.79784639   -0.73521702
    1   -8.05064418   -9.69828995   -9.47890166     69.78672964  -60.57614527   60.45586479     16.54842977  -11.31879081   12.79193174
    1   -6.42212717   -9.90356631   -9.21620861    -71.79544543  -30.34560252   25.18651675    -30.56678945  -11.52154635    8.38300032
    8    8.59343073    4.20774025    1.46904137    -18.77448696   26.37546351  -27.33461949      0.33734546   -0.57181466    0.54787940
    1    8.24863968    4.55895754    2.29200922     -5.35211507    5.52144079   15.70542826      1.04256180   -2.32454527    0.78057519
    1    9.11967240    3.48324265    1.74394521     22.65178773  -31.14432648   13.64997587     -4.80764310    6.95478857   -1.08025370
    8   -7.94075550   -3.88653790    7.33841602     82.50965193   26.01582213  -32.89562469      1.12014016    0.26171629   -0.64709899