 BEGIN_INFO
   #
   # This is a XCRYSDEN-Structure-File
   # aimed for Visualization of Fermi Surface
   #
   # Case: Tight-binding calculation
   #
   # Launch as: xcrysden --xsf HICOLM.XSF
   #
 END_INFO
 # estrutura final
CRYSTAL
PRIMVEC
      18.00000000       0.00000000       0.00000000
       0.00000000      18.00000000       0.00000000
       0.00000000       0.00000000      18.00000000
PRIMCOORD
  585    1
    8  -27.35510899   -0.23173876  -29.77678213     -4.66586991   -4.73503828    1.23081808      0.00000000    0.00000000    0.00000000
    1    1.42226370   -0.05713634   -2.93523228     11.29828371  -19.91849380  -28.17531952      0.00000000    0.00000000    0.00000000
    1   -0.37072400   -0.61599595   -2.64655147      3.63106845  -30.01790582  -36.23685608      0.00000000    0.00000000    0.00000000
    8   -5.40386738   -8.90548630    6.29378199      4.15456373   30.92903283   -2.82577633      0.00000000    0.00000000    0.00000000
    1   -4.51120921    8.84911740    5.91565032      3.85676139   -6.59541474    4.20648424      0.00000000    0.00000000    0.00000000
    1   -6.29014466   -8.62903937    5.92212494     -1.46272033  -18.06205491   -0.08898406      0.00000000    0.00000000    0.00000000
    8    3.07970837   -8.90709216    7.57449097     -1.37014158    1.11878699    2.93514955      0.00000000    0.00000000    0.00000000
    1    2.71078024    8.61260089    8.37025224      2.70096796    0.19659227    1.78669505      0.00000000    0.00000000    0.00000000
    1    2.74628945   -8.66467252    6.66339008     -5.16054688   -1.22012439   -2.43337852      0.00000000    0.00000000    0.00000000
    8    8.97179436   -5.46475639    0.18057375  -1219.82533862 1043.30267848 1405.57531530      0.00000000    0.00000000    0.00000000
    1    7.99186416   -5.30329043    0.06282168     -9.12733142  -11.01943816    0.36299041      0.00000000    0.00000000    0.00000000
    1   -8.18968713   -4.94556194    0.01544429    -15.91274915   52.74351293  -11.43425258      0.00000000    0.00000000    0.00000000
    8    2.51662755    6.41474319    5.90631543    -23.12536328  -21.86474791   -5.74107697      0.00000000    0.00000000    0.00000000
    1    2.17035284    5.80595528    5.19251825     12.32023349   18.20900447    7.53762310      0.00000000    0.00000000    0.00000000
    1    2.73186338    6.33157362    6.87935096      5.88760686    8.03702720    3.48436645      0.00000000    0.00000000    0.00000000
    8   -3.22635104    1.73663802   -2.86246634   -127.00119129  290.47353889 -156.11933969      0.00000000    0.00000000    0.00000000
    1   -2.92850454    2.64140472   -2.55794752      1.21629744   -1.20736142   -8.15592640      0.00000000    0.00000000    0.00000000
    1   -4.09343102    1.31990261   -3.13548705     -0.65311604    4.68259864   -1.40856515      0.00000000    0.00000000    0.00000000
    8   -1.88161670    7.83910801    7.66604518   -868.90754837   25.24283245 -302.61339834      0.00000000    0.00000000    0.00000000
    1   -1.47065246    8.59756547    8.17188649     16.08971058   -5.22215281    1.44963449      0.00000000    0.00000000    0.00000000
    1   -2.53353881    7.10883126    7.87036994      0.74807395   10.15589408   11.04877912      0.00000000    0.00000000    0.00000000
    8   -4.83386818    0.21326750    8.72771258   2177.32242784 1770.95673584-4012.43231539      0.00000000    0.00000000    0.00000000
    1   -5.56134284    0.05950731    8.05622615     25.72219379   12.71653038  -11.66628995      0.00000000    0.00000000    0.00000000
    1   -3.84617263    0.03878875    8.75956964     -9.18225957   10.16121758   -6.99650143      0.00000000    0.00000000    0.00000000
    8    2.65844049    4.11544674   -0.00776638     11.34035708  -32.18279392  -18.57050840      0.00000000    0.00000000    0.00000000
    1    1.81658676    3.57570591   -0.00578952     -6.30827557    8.81772966    6.43734934      0.00000000    0.00000000    0.00000000
    1    3.63868437    3.91760756   -0.01203536     -7.70565610   15.22334408   13.58911616      0.00000000    0.00000000    0.00000000
    8   -5.18370866    2.27537951    0.26390125   1540.23521655 3268.69853418 3640.68384342      0.00000000    0.00000000    0.00000000
    1   -5.85301482    1.55289634    0.43815865    -23.17594098    7.90651729  -22.79081223      0.00000000    0.00000000    0.00000000
    1   -4.21331622    2.31310393    0.02530712      5.01266908    8.58404210   -8.33669450      0.00000000    0.00000000    0.00000000
    8    2.42242645   -1.30878891    0.20493973  -4866.59358712  367.38374880 1575.15466058      0.00000000    0.00000000    0.00000000
    1    4.33889768   -0.97964261    0.14407999   -136.31707553 -153.34429777 -147.78293004      0.00000000    0.00000000    0.00000000
    1    2.49557545   -1.10878383    0.27362928     36.19928785  -14.78137911   -0.19979133      0.00000000    0.00000000    0.00000000
    8   -6.91142690   -2.61009797    3.88481722    -52.14513462   43.44400948  -33.35956647      0.00000000    0.00000000    0.00000000
    1   -7.40469173   -3.36041563    3.44463927      1.28026383  -24.98499668    1.16334563      0.00000000    0.00000000    0.00000000
    1   -6.17314648   -2.53091679    4.55468956     26.14127603   -8.49237438    9.10397947      0.00000000    0.00000000    0.00000000
    8    5.47631051    6.24974547   -8.78332614     -4.95292105  -19.39307014   -9.45168238      0.00000000    0.00000000    0.00000000
    1    5.70287440    5.54926105   -8.10654796     -3.73306465    7.38258828    2.15843377      0.00000000    0.00000000    0.00000000
    1    5.04178526    6.26476532    8.31611626      2.90254339    8.51300810   -3.12146587      0.00000000    0.00000000    0.00000000
    8   -8.09947612   -6.74854780   -8.72893934     38.43812554   25.28267832  -21.56920704      0.00000000    0.00000000    0.00000000
    1   -7.75879316   -6.06899637   -8.07918415    -10.99587422   -4.16475651   16.94573988      0.00000000    0.00000000    0.00000000
    1   -8.99415354   -7.01281405    8.91083157    -11.58644657   -0.42286109   -0.59551000      0.00000000    0.00000000    0.00000000
    8    2.61809838   -5.73564464   -6.75614797      4.23399007   13.89725227   11.40627348      0.00000000    0.00000000    0.00000000
    1    3.03828255   -5.08304542   -7.38670204     10.07613288   -9.90802367   -6.48351619      0.00000000    0.00000000    0.00000000
    1    2.91818795   -6.25941248   -5.95886699      1.39143404   -4.49543204   -8.62028306      0.00000000    0.00000000    0.00000000
    8    1.53058977    3.66645758    7.97804387   4961.58852481-1184.35606577  -51.81961812      0.00000000    0.00000000    0.00000000
    1    1.23806055    2.71759781    7.87772477      2.01487849    2.13913146   -1.31072591      0.00000000    0.00000000    0.00000000
    1    1.12325104    4.55902637    8.05963727    -31.04811042   -2.80471359   11.88850765      0.00000000    0.00000000    0.00000000
    8   -8.71221697    3.84299072    1.00107723      8.73015524  -65.99029416   -8.20859866      0.00000000    0.00000000    0.00000000
    1   -8.74391101    3.64188297    0.02200275      5.25749905   24.32054753   10.75274715      0.00000000    0.00000000    0.00000000
    1    8.64452422    4.18727532    1.68498447     -4.54998696   20.49540282    2.03330533      0.00000000    0.00000000    0.00000000
    8   -5.59238695    0.96990091   -0.80383741   1977.04194884 1708.37396993-2789.04579739      0.00000000    0.00000000    0.00000000
    1   -4.90773397    1.19213682   -0.05875608      2.33072132   49.42440416   -7.06708357      0.00000000    0.00000000    0.00000000
    1   -5.91982589    0.22293663   -1.27262657    -38.07371269  -74.91025271   20.32724539      0.00000000    0.00000000    0.00000000
    8    8.14696118   -0.85012083   -7.96173786  -2151.28453789-3366.10016291 1716.42387039      0.00000000    0.00000000    0.00000000
    1    7.57820724   -0.06923272   -7.70523280      1.82554467    6.45207263   10.19506815      0.00000000    0.00000000    0.00000000
    1   -9.02254048   -0.99101458   -8.49858361      0.11432808  -36.20800116   11.98165789      0.00000000    0.00000000    0.00000000
    8 -115.38053660   -0.25409121  -71.11915391      0.00000000    0.00000000    0.00000000      0.00000000    0.00000000    0.00000000
    1    0.63320983    4.46737413    4.29746704     -9.07995128    3.63730107    5.97654488      0.00000000    0.00000000    0.00000000
    1    0.63809601    3.68934575    5.97507959     -4.33109885    8.25989648   13.75660674      0.00000000    0.00000000    0.00000000
    8    1.69527667    8.06047156   -1.79192171      3.84963544    5.66341650   14.81699282      0.00000000    0.00000000    0.00000000
    1    2.52869043    8.61237759   -1.76257063      8.62716176    3.49949086   -5.02637398      0.00000000    0.00000000    0.00000000
    1    0.74278234    8.21112508   -2.05668263     -5.88995659   -4.08789757   -7.67053864      0.00000000    0.00000000    0.00000000
    8   -2.63461574   -8.02715248   -0.51078811    -25.33778677   18.80562276  -58.52714463      0.00000000    0.00000000    0.00000000
    1   -2.73594564   -7.20518345   -1.07126519     13.75179468   -2.78283819   -0.03681133      0.00000000    0.00000000    0.00000000
    1   -3.00662901   -8.95532200   -0.52288801     18.18908104  -15.63375133   -2.92184241      0.00000000    0.00000000    0.00000000
    8    5.88824698   -8.24313514   -8.16111067     20.07792207    1.71820759   13.31400407      0.00000000    0.00000000    0.00000000
    1    6.55280025   -7.96936344   -7.46579884     -5.48106033    0.07597597   -0.71129767      0.00000000    0.00000000    0.00000000
    1    5.78441399    8.98841552   -8.79257430     -4.16392001   -7.14098493   -0.12190950      0.00000000    0.00000000    0.00000000
    8  -23.13722324  -13.44684118  -10.80597826     11.81241588   -1.87259677    2.23776578      0.00000000    0.00000000    0.00000000
    1   -8.36481040   -1.78481767    3.99933839     23.34453955    1.42784722    5.59699931      0.00000000    0.00000000    0.00000000
    1   -6.88358922   -1.44956607    2.94281064      2.28827126  -18.14369648   21.21266103      0.00000000    0.00000000    0.00000000
    8   -8.42181102   -3.09795814   -0.32948122    292.94302929  -47.13497260 -192.48562303      0.00000000    0.00000000    0.00000000
    1    8.61876824   -3.35081431   -0.45444836    -17.59077504    1.30150560    4.02712088      0.00000000    0.00000000    0.00000000
    1   -7.92791697   -2.29228836   -0.00236827    -25.52151183  -75.46158294  -18.53688503      0.00000000    0.00000000    0.00000000
    8    1.20358757    0.00080785    5.84011103   1354.21278590-1696.22707093 2113.36322547      0.00000000    0.00000000    0.00000000
    1    1.80998568   -0.03375713    5.04601224     47.27450966   20.29832722 -102.98740343      0.00000000    0.00000000    0.00000000
    1    0.25813584    0.27832656    6.01106404    -15.31593526   54.14704732   70.34670316      0.00000000    0.00000000    0.00000000
    8    6.80538917   -2.87623354    3.71639452     24.25094051   31.07184134  -11.99784260      0.00000000    0.00000000    0.00000000
    1    6.64811075   -3.86182882    3.65380647    -16.37049311  -19.51757177    6.78644180      0.00000000    0.00000000    0.00000000
    1    7.29017474   -2.26433882    4.34137573    -10.40001139  -18.69358835   11.63993908      0.00000000    0.00000000    0.00000000
    8    7.28921007   -2.61506606   -2.75345427      9.88831952    3.20390316   19.83773446      0.00000000    0.00000000    0.00000000
    1    6.53177422   -3.15230877   -3.12454215     -2.55231296   -9.54462983   -5.43510920      0.00000000    0.00000000    0.00000000
    1    8.23677388   -2.43249618   -3.01581405     -1.98691664   -4.28698902  -11.35078795      0.00000000    0.00000000    0.00000000
    8   -4.12954525   -3.11933684    2.67710918    -38.91444975  -12.45226473  -11.18022736      0.00000000    0.00000000    0.00000000
    1   -4.85238034   -3.78582075    2.49451355     17.70539553   -1.59730847    7.41109320      0.00000000    0.00000000    0.00000000
    1   -4.08251813   -2.12981621    2.81378550     17.67347823    2.49989925   -6.91574883      0.00000000    0.00000000    0.00000000
    8    5.05008967    7.52973998    4.86252018     -3.58908868   -7.09964592    1.11424072      0.00000000    0.00000000    0.00000000
    1    4.51818622    7.10455998    4.13016839      4.06129543    7.30112302    3.22703252      0.00000000    0.00000000    0.00000000
    1    5.03405848    7.51740841    5.86233605     -2.67409347    9.50679847   -3.35764082      0.00000000    0.00000000    0.00000000
    8    6.92335763    3.09582345   -7.88792903     -0.98426357  -13.26263951    9.29707066      0.00000000    0.00000000    0.00000000
    1    7.27523962    2.59040945   -8.67582103      0.14752007    8.05768305    4.06083493      0.00000000    0.00000000    0.00000000
    1    6.30366288    2.90074076   -7.12769144      1.99079977    1.28443654   -3.00034050      0.00000000    0.00000000    0.00000000
    8   -0.99664793   -8.55197540   -5.77766832   -142.19083127  -34.23729478   70.99221291      0.00000000    0.00000000    0.00000000
    1   -0.10933462   -8.92446539   -5.50569687     10.85314627  -21.16371231   10.28969028      0.00000000    0.00000000    0.00000000
    1   -1.95268855   -8.82781190   -5.67796483      2.01362715   -8.55611875   -2.33330445      0.00000000    0.00000000    0.00000000
    8  -12.21956732  -16.10617618    0.02137278   1166.02466766  626.14627700  619.39411482      0.00000000    0.00000000    0.00000000
    1   -6.46756696   -9.16969526    0.02580279    -33.69219711   58.86515316   -7.68843927      0.00000000    0.00000000    0.00000000
    1   -5.97859755   -7.38598984    0.00441801    -13.25428815  -26.20151722   -4.28128920      0.00000000    0.00000000    0.00000000
    8   -6.32123920    8.26185159   -3.36105202    -15.33350496   -6.62951730   -1.75455630      0.00000000    0.00000000    0.00000000
    1   -7.14823055    8.66600152   -2.97017372      4.82247475    4.94649648   -6.66070305      0.00000000    0.00000000    0.00000000
    1   -6.11797939    7.54120873   -4.02392783      4.47248380    0.44946056    0.46125938      0.00000000    0.00000000    0.00000000
    8    0.31697898   -6.47476181    3.41887625    448.98637053  -59.95308784  167.13489779      0.00000000    0.00000000    0.00000000
    1    0.01655336   -5.60737419    3.81564101      0.57756383   16.65758205   -1.78623242      0.00000000    0.00000000    0.00000000
    1    0.01409187   -7.42690636    3.46029877      5.18505600    4.40118616    9.33357810      0.00000000    0.00000000    0.00000000
    8    8.81825001   -6.07451541   -3.46930910      2.32358341   26.56248560   -3.26129965      0.00000000    0.00000000    0.00000000
    1    8.79224958   -5.07543019   -3.50383199     -5.28058991   -7.31064250   -0.63734209      0.00000000    0.00000000    0.00000000
    1    8.26771025   -6.79327408   -3.04465215      2.92853979   -4.63326029    2.49329324      0.00000000    0.00000000    0.00000000
    8    1.09017285   -6.99127074   -3.60714571     -5.70212601   23.93946228   -6.22686218      0.00000000    0.00000000    0.00000000
    1    1.95753307   -6.97523643   -3.10968146      4.21201420  -10.98642926    1.49842362      0.00000000    0.00000000    0.00000000
    1    0.27239785   -7.56684547   -3.60696478      6.23337967   12.74207943  -21.48477039      0.00000000    0.00000000    0.00000000
    8  -37.15129608  -17.44575205  -31.55475512     -5.02957154    5.34003503    1.81864408      0.00000000    0.00000000    0.00000000
    1   -6.13744904   -7.05471888   -9.01072837     -1.13106921   -1.74499991   15.80091035      0.00000000    0.00000000    0.00000000
    1   -6.83541419   -5.51756344   -9.76596342      0.89521959  -38.74329086   17.79482853      0.00000000    0.00000000    0.00000000
    8    6.26036585   -0.87255097    8.03622439      7.84630404   15.72104605  -21.71930296      0.00000000    0.00000000    0.00000000
    1    6.30335769    0.05504887    7.66507548     -6.97006376   -5.55171699    6.65476540      0.00000000    0.00000000    0.00000000
    1    6.74316089   -1.73353582    7.87605841     -0.93236997   -7.70367022   10.64785433      0.00000000    0.00000000    0.00000000
    8    4.79040439   -7.23234779   -2.46816843     -5.79193558   -2.69713242  -10.20486047      0.00000000    0.00000000    0.00000000
    1    4.59523674   -6.29068713   -2.74243714      5.08986234   -4.33197836    8.97229766      0.00000000    0.00000000    0.00000000
    1    5.49041938   -7.91309549   -2.68404019      4.38227037    0.36184811   -0.36813098      0.00000000    0.00000000    0.00000000
    8   -0.01338852   -3.79165099    3.24694417    -14.64106614   21.31206708   72.14866928      0.00000000    0.00000000    0.00000000
    1   -0.11281783   -3.60486085    2.26956727      4.43349156  -12.74698464  -19.96516843      0.00000000    0.00000000    0.00000000
    1   -0.12658074   -3.27080277    4.09307763     10.71298680   -8.64951431   -8.07052525      0.00000000    0.00000000    0.00000000
    8    1.04112397   -5.87762896    6.98533274    701.87156201 -252.38944637  125.04912850      0.00000000    0.00000000    0.00000000
    1    1.56442361   -5.83661701    7.83652309     14.53086272   -5.77708538    5.73066573      0.00000000    0.00000000    0.00000000
    1    0.37455950   -5.29293189    6.52290131     -4.54770860   36.04972392  -61.72653740      0.00000000    0.00000000    0.00000000
    8   -7.77297237    4.94832472    4.70278440  -2793.26452255-6020.48577255-3025.46597356      0.00000000    0.00000000    0.00000000
    1   -8.14595029    4.20790633    4.14486455     15.86347772   26.80147247   20.15783501      0.00000000    0.00000000    0.00000000
    1   -7.78289437    5.19311006    5.67278249     -3.74349891    0.65891798    4.88334202      0.00000000    0.00000000    0.00000000
    8    7.97956123   -4.00605179    8.80176766      5.02240974   16.09836559  -11.15172765      0.00000000    0.00000000    0.00000000
    1    8.68991889   -3.64926422    8.19502625     -5.04979912   -8.78097914    4.68297794      0.00000000    0.00000000    0.00000000
    1    7.95613310   -4.57451521   -8.37583212    -10.22325127   -2.83802759    5.65633984      0.00000000    0.00000000    0.00000000
    8    1.02020195    2.43320215   -5.43937752   2056.77538440 -454.48834971 -861.24094709      0.00000000    0.00000000    0.00000000
    1    1.28365052    2.69063185   -6.36918055      4.70839095   10.98803661    3.29749638      0.00000000    0.00000000    0.00000000
    1    1.12202544    1.62286712   -4.86228760      3.29185319    8.85217972   -3.19825173      0.00000000    0.00000000    0.00000000
    8   -6.42092445    1.98707337    4.70521271    -12.39916367  -26.72170988  -36.06239428      0.00000000    0.00000000    0.00000000
    1   -6.72835884    2.37675625    5.57336073      8.04659478   18.74392949    8.43874022      0.00000000    0.00000000    0.00000000
    1   -6.74811176    1.99050601    3.76024298      4.37151927   17.06901213   15.83779296      0.00000000    0.00000000    0.00000000
    8    0.86098813   -7.88420150   -6.79612338    157.82959355   43.34830151  -90.76243117      0.00000000    0.00000000    0.00000000
    1    1.14166098   -7.87615458   -7.75591462     15.45207506   -0.33969543    7.51616473      0.00000000    0.00000000    0.00000000
    1    0.02133035   -8.09340292   -6.29487500    -48.89943799    4.95321305   -0.80181624      0.00000000    0.00000000    0.00000000
    8    0.76014325    2.63605794   -1.94358571     59.58174767  -21.77314036  -46.58296464      0.00000000    0.00000000    0.00000000
    1    1.57490575    2.93742748   -1.44822846     -0.33200505   12.14878222   -1.78653711      0.00000000    0.00000000    0.00000000
    1    0.35940214    1.75634616   -2.19960618     -6.91555967   27.63653973   15.20902809      0.00000000    0.00000000    0.00000000
    8    6.61686305    5.99733320   -2.90562312     43.85180355  -59.42568884   -6.70765796      0.00000000    0.00000000    0.00000000
    1    7.40552244    5.38532755   -2.96474874     -6.44142475   12.47420050   -1.98929771      0.00000000    0.00000000    0.00000000
    1    6.45967989    6.94035997   -2.61228631    -10.27490724    9.89039794   -3.73541926      0.00000000    0.00000000    0.00000000
    8   -6.70741456   -2.77509333   -4.32371578      1.52818919   11.43988151    5.20623651      0.00000000    0.00000000    0.00000000
    1   -7.62856996   -2.77812018   -4.71295614      3.48545760   -8.10555411   -4.90817771      0.00000000    0.00000000    0.00000000
    1   -5.89843327   -2.19181066   -4.39697550      6.15618916   -1.16630411   -1.35814593      0.00000000    0.00000000    0.00000000
    8   -5.22660193   -6.91192122   -7.43633265    -20.28145826   10.98008475  -28.24191802      0.00000000    0.00000000    0.00000000
    1   -5.51529352   -7.61185133   -6.78303221      5.41394394   -8.01402137   10.39117692      0.00000000    0.00000000    0.00000000
    1   -4.55431036   -6.17166823   -7.44587500      5.85352232   -4.59784379   11.05681042      0.00000000    0.00000000    0.00000000
    8   -4.57491318    0.48176098   -5.70853555    -17.94871876  -11.84576498   44.94677285      0.00000000    0.00000000    0.00000000
    1   -3.67378900    0.05535260   -5.62983150     -2.56872478   21.63965713   -3.71669906      0.00000000    0.00000000    0.00000000
    1   -4.92563491    1.41718980   -5.75333760     17.98268138   17.31480753   -5.74821435      0.00000000    0.00000000    0.00000000
    8  -49.35505112   -0.54975629  -50.92667863      0.00000000    0.00000000    0.00000000      0.00000000    0.00000000    0.00000000
    1    6.81898598    0.45931884    2.25384797    -15.56158570   -1.39967094   24.99789160      0.00000000    0.00000000    0.00000000
    1    6.35453197    0.04367124    4.04413885     -5.14996345    0.81520392    4.05103117      0.00000000    0.00000000    0.00000000
    8    5.06352684   -6.20843603    1.75195200      7.25929757   27.61289800   12.57402476      0.00000000    0.00000000    0.00000000
    1    4.21638484   -6.73774668    1.79912498     -5.11073687   -1.56582270    4.65576160      0.00000000    0.00000000    0.00000000
    1    5.30274507   -5.23929257    1.69222370    -17.34585532   -9.17925015    8.59662834      0.00000000    0.00000000    0.00000000
    8  -25.12156492  -11.65051312  -12.58991308   2771.65378799 6015.01126868 3017.38744553      0.00000000    0.00000000    0.00000000
    1    7.38130947    1.91231151    1.29203246     10.36776808   27.22133393   -6.13431659      0.00000000    0.00000000    0.00000000
    1   -9.98759589    0.47071095    0.35056736      6.56062735    7.85890553   -7.94083193      0.00000000    0.00000000    0.00000000
    8   -2.44132620   -5.46851560   -5.58869205    -15.84853539   13.64448766    6.40268838      0.00000000    0.00000000    0.00000000
    1   -2.29248772   -6.20676246   -4.93075498      9.58894247   -4.59647478   -1.46508659      0.00000000    0.00000000    0.00000000
    1   -2.12019127   -5.25234111   -6.51074478     13.80134864  -10.32037105  -10.25029810      0.00000000    0.00000000    0.00000000
    8   -2.16105139    3.64239124    6.40696960     10.85226760  -11.49822742   -6.15814015      0.00000000    0.00000000    0.00000000
    1   -2.23971887    4.63150358    6.28243506     -9.62324924    2.37414249   -3.79589219      0.00000000    0.00000000    0.00000000
    1   -2.63436929    2.94638227    6.94695878    -15.43933792    1.01952397   -2.30017832      0.00000000    0.00000000    0.00000000
    8    0.42201324    2.09012698    2.51713519    830.36932209 1792.58058943  691.68934945      0.00000000    0.00000000    0.00000000
    1    1.10884593    2.00010053    3.23826250     20.40204778  -16.22453258   -6.93675853      0.00000000    0.00000000    0.00000000
    1    0.01551914    2.84508310    2.00229445      6.20368387   -6.53317935  -15.32513878      0.00000000    0.00000000    0.00000000
    8   -8.51983701    4.00212456   -7.45690576      4.43422039   -6.86497868   30.11128660      0.00000000    0.00000000    0.00000000
    1   -7.93896576    4.00096172   -6.64288914      3.99019069    5.17835166  -18.62872346      0.00000000    0.00000000    0.00000000
    1   -8.37090018    4.00311623   -8.44577563      8.31841585    8.52064231  -10.21178063      0.00000000    0.00000000    0.00000000
    8   -8.99184301    0.36888427    5.63772454     78.48424714 2494.08160696 -981.15671647      0.00000000    0.00000000    0.00000000
    1    8.17728112    0.05887482    5.17566651      9.88413565   -0.42080783   12.25305080      0.00000000    0.00000000    0.00000000
    1   -8.40802748    0.02579537    6.37338345     28.96132986   15.45157515  -23.58113492      0.00000000    0.00000000    0.00000000
    8   -2.65795342    4.85505263    0.91226312   -286.92004885-2038.05088812 1147.18201255      0.00000000    0.00000000    0.00000000
    1   -2.71121356    4.51500800   -0.02662869      9.40608703  -24.19351193   -0.90851465      0.00000000    0.00000000    0.00000000
    1   -3.30298376    4.99360260    1.66385281     -7.93903632    5.76857160   12.73416426      0.00000000    0.00000000    0.00000000
    8    0.03351003   -4.92277023   -1.44194216     35.79068325 -153.53063792 -550.20151747      0.00000000    0.00000000    0.00000000
    1   -0.01123489   -5.22663185   -0.49024339     10.19487626   41.17413912   36.36622744      0.00000000    0.00000000    0.00000000
    1    0.76058622   -4.72138313   -2.09833988     10.80408930    5.96826757   31.96250188      0.00000000    0.00000000    0.00000000
    8   -3.32315007    2.56554547    4.02977942      9.05804245   -3.03968578  -20.17527239      0.00000000    0.00000000    0.00000000
    1   -4.07764053    2.52517601    3.37468021     -1.73144839    0.50618584    8.23408825      0.00000000    0.00000000    0.00000000
    1   -2.56749349    1.96582084    4.29313024     -9.36895377    6.07398870    2.47074831      0.00000000    0.00000000    0.00000000
    8   -0.79045024    6.73356098    5.17247207   -147.31420658 -185.52790408   15.87644910      0.00000000    0.00000000    0.00000000
    1   -0.21470609    6.47668456    5.94872881     -0.59894638    9.35524966    6.30624883      0.00000000    0.00000000    0.00000000
    1   -1.73732192    7.02988798    5.04729544     -5.66108398    9.03996841    2.59439384      0.00000000    0.00000000    0.00000000
    8   -3.58068862   -2.90814841    5.40272787    -17.73454402   18.35754296    4.12731681      0.00000000    0.00000000    0.00000000
    1   -3.71223308   -3.84166478    5.73631984      6.15525066   -8.15044561    3.50832352      0.00000000    0.00000000    0.00000000
    1   -2.81599491   -2.26611356    5.34725856      3.32308339  -10.25632011   -3.37864054      0.00000000    0.00000000    0.00000000
    8    0.97841254   -2.24607348    7.66797251   1174.37608338 -657.10914222 -128.12921044      0.00000000    0.00000000    0.00000000
    1    1.49961116   -3.09740840    7.72841692      6.68691959   -5.41631703  -14.93762009      0.00000000    0.00000000    0.00000000
    1    0.01136718   -1.99253317    7.69151033     -6.40007491   27.06840764   -1.84999864      0.00000000    0.00000000    0.00000000
    8   -4.96579957    5.48055805    5.71453016     12.68215204    6.81589786    7.32227136      0.00000000    0.00000000    0.00000000
    1   -4.32426921    6.15745998    5.35358277     -9.02411213   -2.23292325    3.26716096      0.00000000    0.00000000    0.00000000
    1   -4.95430494    4.49343554    5.87420775     -1.51087140   -1.54742572   -3.31998208      0.00000000    0.00000000    0.00000000
    8           NaN           NaN           NaN      0.00000000    0.00000000    0.00000000      0.00000000    0.00000000    0.00000000
    1           NaN           NaN           NaN      0.00000000    0.00000000    0.00000000      0.00000000    0.00000000    0.00000000
    1           NaN           NaN           NaN      0.00000000    0.00000000    0.00000000      0.00000000    0.00000000    0.00000000
    8   -1.53575554   -4.94698721    0.01175426  -2128.60143641-1040.52950665 -587.85366741      0.00000000    0.00000000    0.00000000
    1   -1.74680503   -3.96975881    0.03445036     20.24091231  -13.15781884   20.72555499      0.00000000    0.00000000    0.00000000
    1   -2.06404148   -5.79543487   -0.02246951     16.08409040    1.50147754    9.87841081      0.00000000    0.00000000    0.00000000
    8   -0.57519170    5.07867613   -2.18242564   -392.75441176  -99.37193788  261.23434798      0.00000000    0.00000000    0.00000000
    1    0.01003975    5.00872153   -1.37455840     13.84516929    4.18329696   -3.11383129      0.00000000    0.00000000    0.00000000
    1   -1.55512211    5.00596247   -2.36815404      3.65104912   -2.98334568   -0.93066540      0.00000000    0.00000000    0.00000000
    8  -61.64079498  -26.48788918  -49.05640196      0.00000000    0.00000000    0.00000000      0.00000000    0.00000000    0.00000000
    1    0.80265598   -4.29199636   -4.44445048      5.54192814   -6.02644429   -3.07391223      0.00000000    0.00000000    0.00000000
    1    1.86675894   -2.80172576   -4.02736029      5.51049137   -2.14834735    8.75508922      0.00000000    0.00000000    0.00000000
    8    4.04290714    8.33674128    1.72245050     -8.42508823   10.41568635   15.81788367      0.00000000    0.00000000    0.00000000
    1    3.23781147    8.72086004    2.17446358     -0.99140057    2.19572013    3.81766140      0.00000000    0.00000000    0.00000000
    1    4.21105457    7.64341318    1.02169284      9.16201293   -1.53741302   -3.14760507      0.00000000    0.00000000    0.00000000
    8   -0.03369444   -2.36014534   -2.00097304     -9.76370701   53.86972796  -28.80666007      0.00000000    0.00000000    0.00000000