 BEGIN_INFO
   #
   # This is a XCRYSDEN-Structure-File
   #
   # aimed for Visualization of geometry
   #
   # Launch as: xcrysden --xsf HICOLM.XSF
   #
   #
 END_INFO
 # estrutura final
CRYSTAL
PRIMVEC
      20.34112298       0.00000000       0.00000000
       0.00000000      20.34112298       0.00000000
       0.00000000       0.00000000      20.34112298
PRIMCOORD
  927    1
    8    4.37667314    3.08565756    2.01591240     21.93303215  152.63126140  121.47989305      0.02710908   -0.64221054   -0.42768145
    1    4.93466993    2.95365492    2.95693021    -66.42086490   15.82588026 -113.19302630      4.26826596   -1.82977424    7.47884238
    1    4.10511441    4.19759955    2.09189485     43.40920772 -168.84724489  -10.83879562     -4.31142379   12.41364771    0.83134252
    8    8.97231160    7.38076169    0.78685524    -42.59410876   -7.18960951    8.09273811      0.32889547    0.00061505    0.13767874
    1    8.16861655    6.86181514    1.09886257     26.47017963   17.11207842  -11.28323741      0.88605473   -0.79343922    1.30159944
    1    9.70759235    6.89617462    1.17474535     13.57684696   -9.98525926    6.73107527     -6.27405512    1.76205210   -0.99447587
    8    9.51551326    9.96406141    6.80021108     -1.46480221   67.44112729  -49.36686259      0.46903037   -1.75666780    0.46799394
    1    9.62762210   -9.65707571    6.02846797     -7.83545066  -57.39807311   59.97163416      2.60218302   19.73298613  -20.99087489
    1    8.85027486   -9.92835590    7.39102637     11.90186031   -7.93998514  -10.74382292    -12.93898606    9.17601739   10.61027150
    8   -1.18808201    6.51151764   -9.06473549     51.11455980  -26.38568036   65.27920228      0.38870329   -0.26291068    0.80516113
    1   -1.79859231    6.73858927   -8.30093215     15.82174081   -6.58819893  -22.82647818      5.14585562   -1.62037587   -5.94543862
    1   -0.37027998    6.06934065   -8.55713551    -64.71478901   34.57124040  -42.14511389    -11.48706501    6.25139712   -6.87692562
    8   -8.96705407   -8.71967156   10.07355638     33.21740618   -8.03185864  -25.85559127      0.24975070    0.18140526   -0.17466856
    1   -8.52261468   -8.10785663    9.42557811     -6.02018733  -12.08151838   11.88905681     -3.39836974   -5.83633199    4.97905897
    1   -9.76629146   -8.25635009  -10.04788135    -27.05505684   16.53927880    8.90250066      5.25608513   -2.89577313   -1.30708153
    8    4.71163776   -1.46272931    6.97725548    288.18165696    5.42005862  -87.47928745     -0.52312380    0.13987429    0.22614992
    1    5.55845379   -0.62397810    7.11180900   -163.22535156 -159.77206551  -23.63306534      5.40327435    5.56897698    0.92407260
    1    5.33804753   -2.31287760    6.41263057   -120.67464468  162.68807158  109.67621069      5.00693274   -6.73840979   -4.66782156
    8    3.18539259    9.79582462    7.10371290    -90.30182704   64.63265423    5.85399207      1.66652972   -1.16918527   -0.20893868
    1    2.30427561   10.06405788    6.54588589     81.03034391  -24.79731845   52.57711668    -22.40517511    6.62883786  -14.27115238
    1    3.08582113   -9.92240015    7.94107358      7.05105689  -44.83891862  -59.63390687     -2.28007043   13.05506602   17.92266355
    8    3.58997586    7.47005281   -5.39555508   -144.99451613 -223.67317489   46.17499672      0.99352787    1.15017512   -0.40094183
    1    3.70348098    8.16960724   -5.13115413     45.56445427  221.86556644   73.61473138     -6.53093346  -15.34651512   -3.35616405
    1    4.12049804    7.38460867   -6.03198688    104.71344523   -6.11525374 -120.15394232     -9.45287576   -6.10731649    5.68420691
    8   -2.46856272   -6.17084695    9.19851002   -313.01642850  -11.60226866 -214.84208920      2.41236858    0.32513759    1.96491464
    1   -2.51605061   -5.43032506    9.55176984     -0.38989880  150.72645786   77.92670312     -0.69030134  -25.04985290  -12.43737942
    1   -1.93540575   -6.43674318    9.44171212    299.99995335 -138.84246485  143.38369339    -40.69794969   18.13570844  -18.85684919
    8   -2.21402132    1.66142566   -7.00840892    384.07770707 -390.00057368   53.51273656     -0.78648620    1.38762225   -0.82330431
    1   -2.39162561    2.03185701   -6.59817210   -150.67514691  289.64753974  278.54611003      0.44242802  -18.89398496  -10.51457298
    1   -2.51986326    1.76504085   -7.50936994   -225.23426158   99.92663995 -334.04893437     14.33488686   -5.93233372   27.63486179
    8    1.40294293    5.14544158    4.25114978    -20.41187598   -3.52059104  -44.52734774      0.06155858   -0.21920097    0.21198262
    1    1.57245080    5.84036935    3.53611216     -6.32159656  -22.48269555   22.83621402      0.64179202    2.41445832   -2.99506878
    1    0.83561382    4.47891604    3.73573287     24.75044903   29.33183873   21.84242642     -0.95142892   -1.14991873   -1.16247612
    8    7.25058938   -5.94859125   -4.89262717      6.35468487  -35.22336629    3.27598681      0.56360858   -0.55289947   -0.09663084
    1    8.03736978   -6.02955523   -5.45270791      4.52641225   15.47417594   -4.47305338     -8.05175632    0.71829080    3.81770454
    1    7.08380827   -6.91116331   -4.72346209    -10.72209365   19.62688984    5.42990158     -0.52989318    8.51115646   -2.39686821
    8   -8.77713597    8.57583845    3.03511367      0.05499038   16.93054606    5.22331535      0.55461379    0.88714673   -0.81163355
    1   -8.89745118    7.75304690    2.54490977     -1.35134983  -10.78170552   -5.34086626     -1.52114686   -9.42966213   -5.49056180
    1   -9.05549329    8.31725756    3.94301946      0.73986610   -1.21418944   -0.39267826     -5.74937642   -5.48799367   18.23528233
    8   -2.15021524   -8.34707715    3.01870902    166.88446937 -107.30785749   88.32436685     -0.43168596    0.65123878   -0.34871713
    1   -2.66805438   -8.89520005    2.58664821    -74.00871148  -71.07355048  -59.11490880      1.75602331    1.78248107    2.52660281
    1   -2.49618959   -7.64179833    2.91157059    -89.68991976  173.91427288  -29.66684425      4.69432818  -11.57703332    2.79280147
    8   -1.46589033    4.17322201    6.58125854   -135.03815790   21.13481931  -84.76251131     -0.73727813    0.20096790   -0.28474062
    1   -1.23985706    4.55780869    7.31588650     38.37731220   53.76617584  109.47443330      1.66306530    2.29801046    4.18401002
    1   -0.79132416    3.66004040    6.40620229     96.49170026  -71.09546934  -20.98379913      8.50858254   -6.28535913   -2.07893822
    8    2.68614417    1.00751418    1.72445003    150.48817348  169.24784291 -280.34320002     -0.70282965   -0.83750298    1.76133958
    1    3.44946133    1.96264715    1.80720246   -160.21569062 -200.85710626  -11.84067476     12.19921038   15.72789089    0.72494531
    1    2.65103543    0.84697720    0.47240882      6.70359359   32.42252588  292.97186167     -0.53864425   -2.77034169  -27.13372666
    8    2.11025651    1.83078701   -7.77070907     28.62270166   72.33453203    3.93921021      0.31416973   -0.44879708   -0.41693696
    1    1.50951150    1.20092212   -7.46178583    -34.97711964  -37.55419836   18.16634334     -2.18939464   -1.73490950    1.32587483
    1    1.87503114    2.62706247   -7.18499901      8.84055005  -33.93637442  -22.47399940     -3.23562243    9.60950419    7.07944290
    8    6.03794427    0.24188469   -7.66275120     12.55046496    0.18670019  -12.45976421     -0.03217692    0.18674890    0.13012847
    1    6.60377187   -0.33389030   -8.23941753     -7.15891061    6.88500323    7.02205378      1.58920606   -1.81074534   -1.57745400
    1    5.53697270   -0.42582569   -7.17244951     -5.26521223   -6.54601167    4.76170907      0.01181977   -0.34842778    0.16680394
    8   -0.22578675   -7.07730112  -10.03980398   -346.77411739  321.20205447  -44.56889508      2.64154606   -1.75137597    0.48088998
    1    0.36925749   -6.82194717   -9.78166288    270.99535460   87.31983288  107.41121222    -34.59768651  -11.27034332  -12.85572514
    1   -0.15167342   -7.65805666  -10.14731232     81.18119621 -400.57446858  -67.81484473     -7.80545851   44.19870851    7.85071351
    8   -3.83977405   -0.20694371   -2.25673727    -42.66229727   43.15637071   29.70790841      0.04338953   -0.43108330    0.01872812
    1   -3.85487927   -0.83172477   -2.93465967     -0.14934713  -38.85883287  -42.77195208      0.19949992    0.48331503    0.37694927
    1   -3.05192504   -0.42450376   -1.80611737     40.26266322  -11.06467281   21.07638141      0.24150526    0.04019053    0.31418134
    8    7.10652267   -9.35850383   -6.62011520   -296.79978974 -165.90149674 -280.77725203      0.76595328   -1.99467989   -0.22221928
    1    6.71572596   -9.21496026   -5.96570908    -93.07561522   49.20731645  189.95213624     -5.22970844    9.09513198    3.80377183
    1    7.68424089   -9.22143890   -6.51494166    382.13609295  102.40588260   93.13948974    -15.91522781   17.18117197   -3.06054496
    8    1.37001062    3.66608960   -5.87691691    143.32921495  -10.17510854  265.49074136     -1.09260245    0.24085703   -1.18292167
    1    0.58608131    3.92870048   -5.16499540     86.41428060  -29.59208115  -85.33880425     -1.53985803    0.64944797    3.66798562
    1    2.34897589    3.47470752   -5.10933401   -221.19606923   41.43817889 -179.35241424     13.77936561   -1.82327878   12.09213486
    8    6.27531550   -0.46081747    2.78408633   -116.58834051   -5.99005361 -169.13513795      0.04713158    0.00534246    0.19353554
    1    6.69009167    0.07983326    1.92947710    -41.65507639  -57.67790071   96.34836344      1.32834621    1.31194164   -2.23375212
    1    5.25892781   -0.81268574    2.36744056    158.73310745   53.54480236   69.48581559     -2.51657480   -0.49630522   -1.10887611
    8   -5.12316735    2.18743936    5.30281939    -81.84448988  -34.66051090   42.05366787     -0.21736939   -0.06282601   -0.02333608
    1   -4.79762232    1.93661243    6.18929224      0.58061106    0.61621342   -1.47005765      0.26566023   -0.28217306    1.40660257
    1   -4.37806051    2.48293229    4.91208620     77.53753446   28.68810314  -40.19547502      1.73121220    0.69034836   -0.84352232
    8    2.32584751   -5.54991863   -2.93070376    -40.19888996   50.18342093 -132.91084477     -0.49682978   -0.32400101    0.50055966
    1    1.96129674   -5.21431954   -3.92618807     46.51479471  -42.71346171  124.60523193     -1.85807868    1.13522494   -2.75360459
    1    1.52707977   -5.93581435   -2.54129536     -5.74157805   -3.73475473    3.55650268     10.18878363    4.10158017   -4.18735709
    8   -3.66718771    2.30487114   -9.09741714     29.59322786   84.72070433  359.85651676     -0.03634897   -0.13053026   -2.44441395
    1   -3.88249978    1.76070460   -9.44846403    -93.50012835 -243.05524295 -181.62266684      7.10583348   23.01172923   16.09841280
    1   -3.47304890    2.82784452   -9.59765420     62.08278791  161.46364050 -179.92460750     -7.57961351  -17.91994288   20.95575148
    8   -1.16673506    7.64998472    3.66464393    -62.43183489  -77.87388496  -19.80983839      0.08551202    0.06530803    0.00208138
    1   -0.88992508    8.41998799    3.34678322     32.08329552   87.40763290  -33.97217847     -0.26331965   -0.87150614    0.47409294
    1   -0.70076791    7.54793118    4.44095698     33.42045890   -5.97908547   54.17726294     -0.06295086    0.01598504   -0.41456317
    8   -8.81859748   -5.68232356   -2.09772136    279.88103440 -122.04658342 -387.84155376     -1.88337723    1.63178967   -0.22387432
    1   -8.86497465   -5.19403938   -1.77031959    -24.08019473  351.68566587  228.34267245      6.92241514  -35.04789321    2.67352984
    1   -9.25791219   -6.04827556   -1.81914643   -254.00892411 -228.69502023  153.13063911     21.74949899    8.25895692    4.44225495
    8    2.60470452    6.00637922   -9.75268121    -64.37483365   -2.64426770   28.61624097      0.09449713   -0.03414078    0.28373909
    1    3.42493512    5.60168582   -9.50522717     28.72998780  -13.23806564    8.50118393     -3.47867177    1.72415747   -0.97737087
    1    1.97435326    5.72117634   -8.98960911     31.00583038   15.85912910  -38.54054343      3.08053897    1.97212157   -3.95987455
    8   -1.54909868    8.61301552    9.55567418    -20.70012673  -54.93093127   49.08229024      0.36698302    0.06285960   -0.03258497
    1   -2.50722896    8.74163684    9.88364598     43.83375079   -5.86236856  -14.06754747     -7.13291331    0.73353800    2.60851734
    1   -1.23408057    7.82628056  -10.17041644    -23.43778661   55.95363691  -42.79814570      0.87255729   -2.33260332    1.82395399
    8   -3.34793181   -2.04089125   -4.21226776     -4.10465573  -39.00088413   71.05817214      0.05815898    0.29833915   -0.28847315
    1   -2.40161428   -1.94812453   -4.05880828     14.17275821    1.34336964    3.87025041     -3.78759354   -0.74387207   -0.29691934
    1   -3.44538467   -1.64406069   -5.01612681    -10.17008978   34.70601542  -72.36774379      0.72102650   -3.37716098    7.32394264
    8   -8.47656464    2.86829336   -7.73295842   -125.17012992 -112.59363916 -107.13357233      0.26931161    0.06144209    0.08151785
    1   -7.66441475    3.01007782   -7.80373061    158.23850424   32.25191034   -9.48743634     -5.84332371   -1.65980368    0.27027421
    1   -8.70845445    3.33262720   -7.06941177    -33.34767119   82.57560060  115.60812135      1.30372698   -1.89338171   -1.86957744
    8   -2.89418827    5.67839596    3.19422105   -183.08062001  -87.54888395  110.39963085      0.24791801    0.16420706   -0.32883973
    1   -2.39212696    6.28522394    3.33702805    127.39887272  146.53551362   27.78260229     -3.07332139   -3.83434201   -0.65378785
    1   -2.64795042    5.36260143    2.46904189     53.92722592  -54.31559317 -140.01171541     -1.53081337    1.45748221    4.64813408
    8   -4.67022695    5.31820309   -6.39019502     13.49603490 -203.12661157  -33.97865917     -0.18062375    0.84625489    0.16998580
    1   -4.04111147    5.81240671   -6.67409181     98.81889592   82.21913395  -44.11061428     -5.44615495   -4.14141606    2.38310684
    1   -5.18817389    5.84372410   -6.06319390   -114.78511555  121.66408802   73.11331689      8.26582044   -9.78396980   -5.51454863
    8   -0.98325151    9.00859991    6.98173024     69.62543182 -300.64584934  160.10334615     -0.55024444    2.30540163   -1.20009557
    1   -1.22009638    8.75695889    8.15121362     45.41653196   58.93247263 -237.63963428     -5.09989515   -6.63966606   27.91424323
    1   -0.46920786    7.93927553    6.61296152   -111.32002623  237.53880933   71.84423574     14.34947504  -29.76183065   -9.19146339
    8   -9.14275378    6.15606010    1.81956457    -34.05824003   34.04729306   -7.16788011      0.10460029   -0.15878791   -0.04901157
    1   -8.32708603    6.18406699    1.33932872     27.42917173    0.40754666  -16.90846478     -0.38809722   -0.01714389    0.69635215
    1   -9.03277263    5.38824011    2.34611076      4.65575900  -34.31082735   22.68363624      0.08680611    2.30663406   -1.54302971
    8   -3.96426298    8.69559193   -9.51355275      7.70583993  -10.95503303   -9.83166952      0.09332949   -0.07008501   -0.09075923
    1   -4.39524502    9.52860889   -9.73672338     -6.97819939   11.66110704   -3.16354862     -0.96829222    2.41873947   -0.67573606
    1   -3.94398250    8.73597044   -8.55487499      0.08167571    0.62668226   12.82794777      0.24412790    0.33372174    3.61529408
    8   -8.88127640    9.36055795    8.58451175    -80.26447689   96.12702969    0.82962126      0.40267536   -0.19188615    0.63660135
    1   -9.70680321    9.50504863    7.92916351     71.91876540  -13.07369068   54.89682334     -6.01126471    1.05947594   -4.92879203
    1   -8.99820642  -10.15999139    9.26071856     12.55835793  -74.22118323  -60.35152174      0.28010672    0.80518877    0.08784214
    8    0.74955752   -0.95574016    4.37719775     21.81720692   88.15754988   -7.84383957     -0.28399804   -0.92174814    0.04883235
    1    0.71363689   -0.00404943    3.93112139      3.65340170  -74.74367673   35.52000685     -0.76681298   12.31992941   -5.98540950
    1    1.39078376   -0.79986983    5.14350436    -22.16416772   -5.77089131  -27.43127155      5.16214094    1.10880438    6.36322215
    8   -4.44342904   -9.13674248    6.35554812   -112.45963437 -143.20011492   38.25337472      0.63612099    0.85707749   -0.27777132
    1   -5.41806264   -9.62852266    6.70237028    147.17882520   75.48491881  -52.59912295    -12.82796718   -6.68420742    4.96605892
    1   -3.87700178   -9.98265975    6.11440843    -41.99300008   62.63427293   18.11305565      3.07768445   -4.12685338   -1.14957153
    8    0.48101808   -3.90801094   -9.01150251     66.17027241   -1.22104192   64.57788546     -0.14927020    0.01664952    0.01275546
    1    0.73095074   -3.20797127   -8.26785215    -19.96954394  -48.90147703  -53.66772616      0.38981171    0.21298129    0.69513706
    1    1.02616125   -4.74682148   -8.72564670    -38.70520052   54.28091895  -20.84224880      0.50732492   -0.84040773    0.77054883
    8    1.97017693   -4.75233528    5.49410106     -3.12470168   18.30029537   93.51700474     -0.28135092   -0.04712518   -0.62740099
    1    2.54461961   -4.79272162    6.38667111    -49.39864624    5.07333082  -73.36525729      3.35650651    0.15169025    6.22774994
    1    1.07754082   -4.37068852    5.83546978     51.63718319  -21.04958312  -19.89611322      0.18275247    0.25907454    1.13456157
    8    4.88114648    1.73634105    8.95359503    -88.33331276   -8.82975103  -24.22338863     -0.24653402    0.00475041   -0.00258855
    1    5.40081443    1.21392277    8.38132041     27.12040013  -25.78035068  -28.07668980      1.71449047   -1.77298489   -2.08286105
    1    5.49578238    2.08393808    9.50291072     59.54208346   33.58881019   53.29241437      1.17358889    0.65980668    1.31848363
    8    8.76189077    1.46705971   -4.05972873    135.62122351   24.13374761   60.14110872      0.02338442    0.06606887   -0.31933258
    1    8.46135416    1.59407429   -4.86953819    -41.40738131   17.06781393 -107.40524089      2.42368984   -0.12440196    6.03685631
    1    8.08693612    1.07031426   -3.66705181    -86.86767376  -49.22046043   49.31400388     -2.14795334   -0.02954977    1.46790604
    8   -9.63398084    7.92864618    5.46260216      0.81735338   -9.24131388  -36.44620194      0.17367737   -0.53811463   -1.15898676
    1   -9.97069909    8.63559774    6.00017318     -9.85560189   21.68847681   19.15929621     -5.35726355   12.93140372   10.84099606
    1   -9.21011539    7.35049124    6.09658858      9.88332120  -12.44770348   17.21726315      5.41200423   -6.36607115    8.31844556
    8   -8.39101940   -2.62769690   -8.76683399    -54.42230196  -20.42525715   26.46235497     -0.16840064   -0.31686149    0.14718877
    1   -7.70490116   -2.34711618   -9.31207396     47.70489669   19.17123569  -37.88199573      1.36589992    0.66826743   -1.45027266
    1   -8.15814584   -2.21074011   -7.93027038      3.51523502    4.96221377   11.20430480      0.36640714    0.55631511    1.38510436
    8   -7.72268413    4.01404385   -3.50331650      2.73889194   12.43634102    4.91319190     -0.02437803    0.48950558   -0.22776671
    1   -8.24081349    4.21613498   -4.30901999      1.36296543    0.05407485    0.72292975      2.50032541   -1.60231002    4.74696323
    1   -7.30356215    4.88258280   -3.28541581     -5.58981229  -12.50712019   -3.70777039     -2.03892446   -5.15589700   -0.67213076
    8    6.18906224   -8.42245318   -4.27500935     65.71378996   -3.30649984  -67.85899956     -0.37543489    0.15898402    0.86926417
    1    5.51966682   -7.99590998   -3.85420726    -64.61643476   35.76781305   45.16605662      0.70529221    1.26239437   -5.71926170
    1    6.32183521   -9.18915544   -3.75776120     -1.00447257  -30.66985543   26.73072330      0.51229640   -2.24073230   -1.30272967
    8    3.51690814   -2.30944109   -8.75067875      3.42202294  -14.01555444  -46.65506967     -0.09184742   -0.01444614    0.03599776
    1    2.64460188   -2.08728467   -8.45324691    -26.37600286    7.02095685   10.72760215      0.45292394   -0.18276969    0.12821386
    1    4.03591732   -2.11733086   -7.99078369     22.09718595    8.37922557   34.62123208      0.69536801    0.00474116    1.03268283
    8  -10.12943954   -3.85986033    5.91938004    -13.79440943   -2.88339784   -5.98128765      0.13716555    0.92767123   -1.10958163
    1    9.65514485   -4.52842310    6.37705546      2.17494894    2.43360979   -1.48620305    -11.04663971  -13.54492114   10.23843487
    1   -9.32866311   -3.84902663    6.46163473     10.74087701   -0.41768803    8.16897771      8.77856234   -0.15431232    6.72034187
    8   -0.83341390   -1.13281739   -3.57869520      5.37264864  112.96718699  110.48155984      0.02085627   -0.35774775   -0.62687157
    1   -0.66182088   -0.06293636   -3.70561047    -18.53111929 -117.68307507   12.91192119      0.92256163    6.72163541   -0.10210328
    1   -1.02908722   -1.19459620   -2.49731543     20.35889961    5.26626693 -123.51683623     -1.50370874   -0.69004424   10.79186660
    8    0.11570720   -6.66251639   -1.84884581    331.37368540 -195.46464528 -101.39658090     -2.14873474    0.09115039    0.98257092
    1   -0.34079206   -6.63845259   -2.48915477   -136.83095864   17.35778240 -156.28838257     11.63407177    3.84592358    7.04618488
    1   -0.19344545   -6.35511990   -1.37967597   -195.68010698  179.16569114  251.72254708     21.86554698   -1.79566368  -21.86315332
    8    2.81694891    7.92920431   -0.47576136    217.55141647  224.08899660  -45.23580769     -0.43586704   -0.35103929    0.09612576
    1    2.12660061    7.82819999   -0.30627915   -266.34416502  -57.11314022   65.23096257     -2.73151643   -3.03636103    6.19372551
    1    3.14744474    7.19241305   -0.53938190     58.72682857 -170.17840822  -11.23194510      5.20862721    0.64173986   -1.35794618
    8    0.44482212    5.49889964   -2.08155148     51.11715898   -6.98026809  -83.95798318     -0.25444003    0.18086479   -0.09032324
    1   -0.18954429    5.07227368   -2.75426609     31.54783957   21.37616177   34.11424663      1.41249136    0.03192501    1.54354325
    1    1.29693496    5.72889682   -2.68627030    -76.02746680  -21.62748705   56.13543874      2.85372536   -0.50292717   -1.64303825
    8   -0.45699990   -7.73327137    5.05760555    182.61797168  -68.88800134   -6.47260734     -0.59375419    0.42107871    0.05442770
    1   -1.03961573   -7.95286635    4.47370446    -98.16977911  -29.95721061  -87.59851534      3.89686316    0.71134909    3.94967885
    1   -0.85600497   -7.22496915    5.57924004    -83.12081313   95.86500069   95.22514452      5.35959459   -6.18760484   -5.57240124
    8    6.61079459   -7.82640900    2.95844551   -412.10474143  -61.27291096 -102.74365230      2.08740511    0.32358784    0.46058520
    1    5.52186976   -7.83936357    3.67962831    286.91184857   13.50588939 -185.82743022    -21.01423576   -2.98843093   11.47283199
    1    6.12582826   -8.02059157    1.78008058    119.66973948   54.98429354  294.62751943     -9.11787562   -4.04973223  -18.76894614
    8    8.75215050    1.51271895    8.44396383     62.77914224  -82.13193825  -78.84931363     -0.21014852    0.50817795    0.22668976
    1    8.20634906    1.80078170    9.04100330    -79.26582294   43.21613199   89.09885563      7.16158193   -4.25918132   -7.86713180
    1    9.12496637    2.31006795    8.11471552     17.06327014   37.05295067  -14.74447776     -2.56282764   -5.39013783    1.87246280
    8    3.51937849    3.39340720   -4.33012923    466.69261718 -217.50394096   96.95838008     -1.36514373    0.79195658   -0.81191970
    1    4.59248865    3.55345648   -5.06129984   -285.42834042  -36.69814925  188.94059250     13.18323496    8.65535002  -20.04881052
    1    4.06112209    2.55664828   -3.36567947   -174.60434244  256.86778540 -281.33798800      8.42347300  -22.66576202   28.64889992
    8    6.49754259   -7.91747341   -8.77776829    156.29254003  319.73614055 -212.21677943      0.28792852   -0.24255763   -1.52136295
    1    6.69556529   -8.26572590   -8.24419231     43.40188382 -211.90139052  262.46104271     -3.47778529    3.41683986   14.86439426
    1    5.84965042   -8.15558224   -9.10083821   -201.05902537 -113.93250420  -56.34311122     -2.77265154    1.67343403    6.52692888
    8   -4.56848331    0.41363868    9.60525826   -177.98023794  106.34922627  173.63319859      0.89007495   -0.51403933   -0.87280557
    1   -4.19002096   -0.25933922    9.53608722    115.06031996 -192.13485438  -27.21634034    -11.56951463   16.64867179    1.42401031
    1   -4.35261684    0.82773223    8.93771336     53.70101961   82.54583861 -146.92840515     -5.62316497   -6.83856704   11.92506783
    8    4.94064867   -1.96206843   -6.50068738    -20.85869441   79.98484753  -25.46129532      0.04663108   -0.14195815   -0.10966696
    1    4.96384300   -1.77996779   -5.56566888      0.67244592    3.37175949   28.36074158     -0.41256238    0.19618814    2.29544532
    1    5.15639673   -2.83824683   -6.52125296     19.84934359  -79.63058076   -0.97995061     -1.16187435    2.28685642    0.41502613
    8    5.74378593    8.78730700    2.31631631     23.70157833   20.06268660  464.22751502     -0.34655374    0.22162129   -2.76918562
    1    4.98328508    8.31527668    3.31005834    205.50545889  130.67777388 -278.96078051    -26.62499992  -15.75770511   30.28570730
    1    6.62792136    9.44673458    2.99467058   -227.18103458 -166.45015765 -170.76263520     26.22643701   19.20745116   12.48300832
    8    0.43474054   -8.83965060   -6.67049087    -67.29936348   43.25672813   34.19484670      0.40323562   -0.47363783   -0.29494468
    1    1.33247773   -8.73492458   -6.54656457     68.56577153    8.63403301    8.30162613     -6.68639185   -1.35715091   -0.77343914
    1    0.40818750   -9.58387798   -7.20308421     -1.75577378  -52.49362681  -39.32227307      1.43595556    8.09846914    6.87674917
    8   -0.84369484    4.43618847   -4.35298664     26.25186697   58.71330598   14.31360781     -0.67394445    0.15440955   -0.29569530
    1   -1.12292114    5.41659573   -4.35775118      9.29849622  -40.53539429   -0.48188721      1.54386359   -7.49594017    0.49885111
    1   -1.62459429    4.01923982   -4.67938562    -31.03300025  -15.76001353  -13.60991981      7.94603244    4.19682654    4.62624834
    8    4.68742777    2.58860051   -8.12281999      3.30808062    2.67799247    5.88982225     -0.01227943    0.02107180    0.02817688
    1    5.18236447    1.74897206   -8.09293393      2.00472858   -3.86972146   -0.86356785      0.90332015   -1.35814494   -0.34010847
    1    3.76635999    2.29064836   -8.02006232     -5.92273714   -1.82467149   -0.43519434     -0.27558362    0.09742087   -0.31565225
    8    2.78712359    5.76884476   -3.45578134     50.67637191 -168.45597236  -75.07050722     -0.43141869    0.90171923    0.57731151
    1    3.11506470    4.76138528   -3.91361660    -52.13699800  152.36197031   80.17706429      4.09312507  -16.73518105   -5.17427085
    1    3.09195983    6.38715888   -4.14227206      0.03797417    7.81789304   -0.45483132      1.18088121    6.16595038   -1.67534966
    8   -2.93816965   -3.13786520   -7.39961377   -218.73105678    5.99200307  -28.09510302      0.31064591    0.46843897    0.15133974
    1   -4.06556834   -3.39665189   -7.66798184    205.61443088   46.68989141   45.76268336     -4.43320383   -1.32727112   -0.44727071
    1   -3.03549558   -2.16005095   -7.08342420      7.03838153  -56.32792301  -18.30479189      0.41749177   -5.72313612   -1.36018342
    8    9.72129852    1.12754175    4.73503340    286.90168313  230.66600256  -25.89828680     -1.00437732   -0.66288822    0.07918678
    1    9.03929986    1.14161342    4.77095872   -319.36328844   -9.42540784   18.41518044     17.27149257   -0.58757204   -1.04367368
    1    9.91438322    0.38756861    4.75876735     42.83672278 -226.47248362    9.05391506     -1.54055810    8.29558790   -0.53897476
    8    7.26000032    8.87522878   -8.40733440     26.24033770  -58.42553332  -21.59063891      0.50065806   -0.41193338    0.63520687
    1    7.16693306    9.62658256   -7.87237741     -5.26101858   41.97969113   29.73012967     -0.80198767   -1.86081753   -1.25239740
    1    7.87761605    8.29440109   -7.86807283    -17.96496051   15.11754942  -13.64136156     -8.64384989    9.03511828   -7.86170653
    8   -2.86967308   -3.46806278    2.96872323    -86.57901812  -83.21071549  -86.45897417      0.16008036    0.13490528    0.19561126
    1   -3.21011730   -2.74057075    3.33575262    -37.67022050   83.50993989   42.85113564      1.48344539   -2.38102194   -1.75633569
    1   -2.06466583   -3.45915807    3.26239336    122.00654954    1.89651760   44.70818233     -4.66402264    0.84369705   -2.11872996
    8   -7.30465862   10.15300586   -8.78129956    -57.99956348 -162.34617004  140.09169040     -0.02330163    0.67399989   -0.45415832
    1   -7.85996826   -9.73807871   -9.21221852    -99.59233705   87.48525706  -83.36439950      5.06476544   -5.12233303    3.52670572
    1   -6.59077981   -9.89572680   -9.01968962    160.27516425   70.79668530  -57.79070334     -5.34770606   -3.17326345    1.23316094
    8    8.44052126    4.08078132    1.48669128    -27.17440826   32.74083490 -194.20263348     -0.38394911    0.36700024   -0.35997825
    1    8.18608405    4.41017246    2.18125349    -55.34144972   70.19304385  152.54211158      0.52468011    0.12970431    1.95289099
    1    8.94056463    3.44250774    1.73501820     80.10314442 -102.67280964   42.40519033      4.17704566   -4.58624409    2.26034459
    8   -7.86050728   -3.79669474    7.33871743      3.19745708   -9.38174808   -7.32389745      0.10489924    0.07114909   -0.01021675