 BEGIN_INFO
   #
   # This is a XCRYSDEN-Structure-File
   #
   # aimed for Visualization of geometry
   #
   # Launch as: xcrysden --xsf HICOLM.XSF
   #
   #
 END_INFO
 # estrutura final
CRYSTAL
PRIMVEC
      21.12452506       0.00000000       0.00000000
       0.00000000      21.12452506       0.00000000
       0.00000000       0.00000000      21.12452506
PRIMCOORD
  927    1
    8   -3.14094570  -10.55114374   -0.61024542    -16.38252061  -16.97888801   16.38018718     -0.42885892    9.97583059    2.57022569
    1   -2.52381730    9.82145743   -0.49509728     -5.80036721   -1.69970436   -2.13851687     -8.17983881   -0.97691476   -0.50222982
    1   -3.84354873   10.40184829    0.09826866     19.64289739    5.39659453  -20.56915129      0.35031840  -20.05815405  -21.20114979
    8    1.34643871    9.19145839    1.13245822     -0.37247262  -12.40551146   -3.33116606      0.85194852   -4.44540737    1.61415575
    1    2.11012902    8.60213778    1.34260399    -15.68794280    1.56987524    5.94265548    -16.60891538  -37.17902952   -3.27442820
    1    0.55098826    8.69892436    1.46257308     24.90359228    7.56869775   -0.97620747      1.30419950    8.49720789    0.12697155
    8    9.91532508    3.97836983   -4.14993113      1.91675435   24.07115049   -2.95302867      1.24016844    1.28518333    1.74296769
    1    9.32756076    3.25297907   -3.88296304      1.53883964   -6.23564479   -3.20816369    -22.53001804   -4.56517121  -16.42250738
    1  -10.33834471    3.57915938   -4.26525768     -5.43437669  -13.69090431    4.19746376    -27.12584802    8.32091557  -41.05687428
    8    6.46931183   -9.38805991   -7.55010136      9.84165266  -10.43388455   -4.83696677     -1.15886130   -5.06840904   -2.14765057
    1    7.40643131   -9.61586829   -7.66041112      4.22266081  -13.23050171    8.52008124      8.05944189  -18.51805990    8.63789060
    1    6.53437303   -8.46629545   -7.77001722    -16.48265672   17.93017247    1.48112657     35.12678475    6.44323155   20.34221802
    8   -6.68493862   -6.32064806  -10.24710355    -18.40412987   -2.00252602   23.38702023     -3.95314729   -0.07898705    8.14820548
    1   -6.85604361   -6.90887130   10.12365320     -0.71629376   -1.35063862   14.22150509    -28.37445068  -28.36052516   -2.66593077
    1   -7.11691231   -6.76675946   -9.45598062     18.87283260    5.12633652  -38.57860355      8.00230679    8.99663010    0.83119391
    8    8.32597126    5.03730282   -1.58970450     29.67686242   -2.01597286  -10.53112365     -2.00407930   -4.34195469    2.88916074
    1    9.24635284    4.73711760   -1.79174365    -20.74292884   13.73473922   -0.05028980    -12.38719648    3.88690681  -41.40774484
    1    7.91152980    5.07048516   -2.46044392     -4.29499584    0.29999243    1.05216090      9.43163449    5.68935944   11.64742242
    8    4.52930102   -5.34745297   -6.87119387      6.14294717    0.46274218   16.93611929      0.31269051    0.08895387   -3.94823492
    1    5.24586164   -4.87664786   -6.40555821     -3.26117029   -6.69952639  -10.37206191      9.63345184   12.89214500  -34.49470030
    1    4.21242367   -4.69908018   -7.50547718      1.98682296   10.06870549   -7.27584779     -3.95562437   -6.20098517   17.27417414
    8   -0.76468438    7.54025635   -3.77073946    -36.92078686   -2.41880112  -73.40436142     -0.70550822   -4.35976823    7.23224123
    1   -0.67126597    7.28264203   -4.74035235     14.37812655    1.71619703   46.67467587    -21.85132675   -9.19721773  -32.27584771
    1   -1.60553821    8.04973600   -3.91442217     21.33050619    5.08827848   28.40688188      5.57908002   16.74347734   13.20867217
    8   -4.10493262   -6.53103067   -7.96081712     12.14364977   14.56856944  -35.61091622     -4.32722489    2.55529732   -8.90634818
    1   -3.22165552   -6.16785580   -8.15815676    -12.55533655   -0.46082629   -0.83788083     21.11830411   30.69079918   -9.36571524
    1   -3.98308230   -6.86384185   -7.10415421      1.41115105  -15.61777044   37.20406852    -30.74044307   36.86973532    4.02152456
    8    5.03424234   10.45406329    1.95988632    -78.10770528   -2.14590697  -37.66642241      4.97448179   -4.88461478    5.52181508
    1    5.76108495  -10.55733675    2.49135560     63.15672517    4.44134875   26.13061007     -8.18917260    1.44194611   -3.51802298
    1    5.36545203   10.30691626    1.04169907     15.02363550   -0.78265119   16.71073105     -8.72653718   -1.79728780  -25.52662881
    8    4.05082580    5.69094669   -8.43517355     -8.39423188    0.26081502  -10.75398390     -5.36456888   -6.46240822    1.69825375
    1    4.39417437    5.62143648   -7.52105340    -10.39581609   -0.06290782   -1.54431040    -12.15562240   -6.80827219  -30.26192401
    1    3.10884152    5.34817179   -8.40688996     27.49575015   -0.44947638    6.25993610    -20.00182271   13.72677098    5.74932946
    8   -7.02814313    4.94022270    4.25978792      1.33807128   21.07139197   -1.83209498     -0.76663458    1.06289464    3.12574249
    1   -6.78229325    5.78183299    4.75229104      3.43155524  -30.96766002  -25.01535278      3.69629834  -36.99733458    3.35330691
    1   -6.54741350    4.99377120    3.38202244     -3.71804205    8.07145054   24.47952818     20.24846125  -16.12429171   -7.63285663
    8   -0.55623567    6.94357384    7.20803615      5.65719563  -14.26153278   16.81074306     -3.87885150    1.43269265    4.96404398
    1   -0.22199608    6.24575219    6.59599736      0.41360700    4.81054669    3.53847064     -2.21986243  -27.39746517    7.63104642
    1    0.08394080    6.88418324    7.95363955     -4.04233543    2.20025023   -7.80671067     10.02256781    9.34520022   34.20173368
    8   -7.85875495    4.46642631   -7.57165688      1.66494149  -11.85013154  -50.39495658     -1.34206730    1.41937576    1.61850085
    1   -7.85348924    4.35128228   -8.57613916      1.90834705   19.12938475   35.12247353     15.11128072    3.80170916   -6.75921316
    1   -8.10049273    3.56822221   -7.32811502     -2.39155929  -10.42414248   16.49425880     17.46902011   -1.12781602   -6.91571396
    8   -3.77160269    4.25900688    8.75419477     11.09747391   17.26196988  -45.45132512      4.04137529    4.70753263   -4.72012058
    1   -3.38768453    3.55245095    9.21669337     11.22732727  -31.11795817   44.65872894     13.14598356   -3.74792248   -2.55946157
    1   -3.25465154    4.15335362    7.92780635     -7.51870229    8.99985745    2.40530123    -15.32514875   -7.63233993    3.50998344
    8   -6.08088075    9.03664930   -9.41744775    -18.03039989    4.40816941   45.70169310      3.32279177    0.86887412   -1.55332351
    1   -5.61912033    9.15995255  -10.22548606     19.86167590   -2.77218652  -28.54968716     -5.64652635   16.72583116    6.61381066
    1   -6.25423745    8.09026406   -9.36643674      2.18246787   -1.68913367  -11.89987075      3.34899579    9.78803259   21.61399454
    8   -5.84416940   -8.85910097   -3.21923032      9.52735660   -4.51852246   -8.02264412     -3.69894741   -0.77600559   -6.14089141
    1   -6.10719613   -9.61526396   -2.67222161     -8.99930211   -1.25777420    1.75003995     -1.32942435   31.67189112  -18.94771417
    1   -6.50697397   -8.87234835   -3.94444828     -0.07761054    0.72304814    7.07812271     13.04053376  -13.32957917  -13.90847060
    8    7.95108805   -0.43713475    8.93791531      7.09715031   16.73827885   55.07810889     -5.99094739    1.90062267    0.72032483
    1    8.45470967   -0.87659327    8.26519312     11.29781593  -17.61375638  -17.59019812      2.63578834   11.33179334   -3.94076299
    1    8.56299672   -0.45216775    9.72679782    -19.21741927   -2.49925935  -35.72862447     -8.24896538   24.07577385    1.78031659
    8    5.88954301   -5.33161445   -2.38202354     10.62018335   18.73714666    6.51114420     -0.33667045   -5.29285381    4.29385443
    1    5.73468913   -6.19961748   -2.77407518     -2.35188786   -0.96581008  -14.37260742     17.18658538  -18.21778454   -3.95906260
    1    6.22136042   -4.75729744   -3.09727644     -7.64127249  -14.20923150    2.34156232     10.41397090   17.90104003   14.82236663
    8    6.30201385   10.05357299   -0.42236612      6.18154746   -1.31875117   -0.74712975     -1.45899120    4.65833567    0.22849782
    1    6.11829704    9.10377820   -0.51925279      2.18461892    2.83816400    2.54478762    -37.07327030   -2.20720488  -14.45134445
    1    6.63816624   10.26818773   -1.34025280    -14.61190416    3.77724301   14.39441738      0.49412410   -7.97698915  -23.04538737
    8    8.62131255   -2.15183272    0.88635073    -17.37895746  -29.10368002   59.50722707     -1.02630150   -1.72841338   -4.20583610
    1    8.34409178   -2.72232292    1.68274188      4.06954513   38.98362886  -34.08311781      0.08006006  -17.93037613   -4.46412302
    1    9.00312428   -2.82382609    0.33594260      5.88772883  -10.09634405  -20.60526144     -9.15130275   -1.36058612   45.52653518
    8    1.03056560   -4.08050019    6.53470536     23.59440598   10.29816146    1.16563053     -1.77415705    0.98515179   -0.85361010
    1    0.17843900   -4.08899535    6.92964805    -36.30510100   -8.79668169   12.37894000     23.36415650  -19.33177375    5.76815787
    1    1.53741340   -3.65919667    7.22840190     14.44541983   -1.76751817    2.12349217     24.58155019   -4.05614739    2.32099252
    8   -9.92677492   -9.17780393    5.42239583     19.85944052    6.16721671    6.51219274      6.32451016    0.65303855   -4.46863143
    1  -10.16145350   -9.90903014    6.01467116      3.47934629    8.99986540   -2.46271681     10.14665938   32.01539136   24.00720804
    1   -9.18563646   -8.70161900    5.89191970    -29.42451370  -18.11276908   -7.89016012      5.07165635    5.73215336   12.74263353
    8    6.91521901  -10.46972707   -2.80919195      8.65876157   -3.10026132  -83.70755599     -1.72990747    1.34958508   -1.24884239
    1    7.47207348    9.86615562   -2.96522584     -6.84733998    6.85534154    7.52640175     -7.79277187    9.48149193   30.09912809
    1    6.59063672  -10.32380718   -3.76640404      5.88437510   -3.21841983   58.45481347     16.94094965   12.81865451   -3.03908728
    8   -6.22771330    3.76141131   -3.36233276    -31.80246837   -6.03058373  -13.98823809      1.59124731   -5.82637258    3.04072959
    1   -5.70868154    3.99061979   -4.08867752      5.06460232   20.34344988  -56.71291584     21.84177699   -0.33617336   41.94436575
    1   -5.52780184    3.64015029   -2.79014811     34.17436308  -16.10434777   64.60597375     -2.63969683    5.50643597  -23.22130228
    8    4.07792570    6.94985846   -0.40681230     22.71294094  -10.47914698  -59.37728118     -2.73907390   -1.98502384    6.64536911
    1    4.86875510    7.17742177   -0.99271062    -30.92220464   -8.34407165   13.60021511    -22.17168094   20.04238841    7.47869037
    1    4.33337977    7.32905538    0.39358304      5.60953369   17.21799924   46.17324901    -10.21452870   27.80727630   -6.78083755
    8   -6.93565370   -5.22966636   -0.29138888    -35.67770112  -27.82016366   18.03747180      0.77148996    2.76729516    2.11765553
    1   -7.43021809   -5.64983139    0.45324970     -0.09894352   -4.71318613  -26.21030265     20.35065967   -6.89339927    7.85130701
    1   -6.50640313   -4.55747636    0.19436533     28.44780598   34.64161161    6.11602594     20.88614088    8.44663984   18.64349603
    8    2.65391478    4.13989772   -5.46272833      0.86478578   -7.17415320  -38.67795806      1.50680765   -3.15894946   -4.71386262
    1    2.52970268    4.69867553   -6.24832051      5.82564489  -15.76577616    5.51230310     23.53766714   19.09437319   -2.32646010
    1    2.33897877    4.71510846   -4.79829292    -11.28150393   17.22950612   37.55835787     11.55068477   -6.34436830   25.74478623
    8    9.82083967   -6.35491287    0.25166168      3.68801470   49.82401598    4.39314663      1.49491132   -2.58022345    0.21258561
    1    9.72931430   -6.90858197   -0.53043962     -5.40551630    0.67535850  -10.34697847     -9.07942213  -16.10761541  -14.32474389
    1    9.83743614   -5.39620738   -0.10967623     -7.27574168  -47.80322752    4.81302770     -0.27642420    5.55826283  -10.99260839
    8   -5.44463756   -2.96548723    0.26078157     -3.09056088    6.74364466  -12.60320112     -2.50818877   -0.74559484   -0.68806620
    1   -5.82527691   -2.64899166   -0.57914847      1.34946397   -7.92155415    7.25771410      3.22494932   -9.75121220   27.78134021
    1   -4.74466679   -2.31791080    0.39782602      9.38422611   -0.05436361    5.34424246    -19.97442089   -3.88880886  -40.42358972
    8   -0.48405274   -5.35914819   -1.89161216    -37.16599030   25.83282132   -3.24370333     -3.34093972   -8.63113718   -0.17374374
    1   -0.79263945   -6.26475786   -1.92411032      5.54626891  -22.48677459    1.79506284      2.55128034   -7.09480494    9.58474007
    1    0.45351896   -5.42609473   -1.89506572     27.08335934   -3.93276680   -2.49827260      3.42792079   -5.73331539    0.67757759
    8    1.20645947    5.96828379   -0.48796685    -21.90777932   49.40492499   15.78668971      5.65344218   -3.85936169    4.31287686
    1    1.16410663    5.05666371   -0.79251744     30.93035549  -13.21200194    1.09103774    -24.83180367  -14.32388050   13.46377930
    1    2.12363804    6.21466077   -0.22575072     -5.87721433  -28.87609674  -15.20330361     -7.95443253  -12.74143058  -33.58192061
    8    1.62458588    3.50205824    1.35269211      0.79504858   26.77886501    1.21407326     -0.00611143   -2.66614116   -1.47719367
    1    1.58529198    2.63409801    1.75664096     -1.51811442  -25.59800784    0.42901793      0.34488540   -6.89613931   12.21169197
    1    1.54680022    3.33144174    0.40692668      0.94828314   -5.34655871   -5.43193264      1.29772029   18.84895882   11.59513864
    8   -2.14227856   -6.04367921    1.90855493    -39.52440190   58.36594376   43.57920848     -0.74596515   -0.77609911    1.05104076
    1   -3.14307823   -5.84681804    2.00728667     46.82698782  -17.33776567  -16.36191055     24.99420202   27.73751011   10.25160477
    1   -2.10336322   -6.78650483    1.35462446     -5.15977225  -40.43632024  -34.02659839      1.29196626  -22.58735362   24.35442555
    8   -4.91736426    0.58638305   -0.89242607    -34.48330481   38.10398159  -36.99299399     -5.92851688    3.96694274   -4.48919938
    1   -4.26261478    0.00910947   -0.53896925     18.17156209  -19.21718116   37.91807906    -24.36554899  -16.01295096    1.99596491
    1   -5.50959165    0.89652506   -0.15486883     28.34123446  -17.31843470    5.44892693     27.42832348   -9.91357849   15.24877824
    8    3.54210511    8.04403962   -9.60273191      8.32595733   15.37340769   -8.83312151      3.65034358    3.35043092    0.03810291
    1    3.90368950    7.24334443   -9.21270985     14.82715151  -16.38842549    2.97705065    -10.99525709   -3.72968737   -1.99122798
    1    2.69047740    8.03623148   -9.18750180    -30.07058397    7.92327788    9.51707208     -9.48094173    8.40392366   -7.15021033
    8   -1.84843880   -2.91932187    1.97072881     -0.21996613   28.81536730  -18.04927036     -1.93575729    5.45763482   -0.79122419
    1   -1.61380184   -2.72828766    2.89194150      2.47573932  -21.97075358    2.79389852      7.90434761    8.29910624   -8.66771864
    1   -2.01442108   -3.86470741    1.89919972      7.25853697   -9.24035152   15.51890746    -19.57825935   15.44106808   11.05247735
    8    4.52577315    4.56971882   -2.01415350    -42.97409636  -21.87360836   39.45760686     -0.21305334   -0.94635887   -5.74065191
    1    5.09280847    4.87433223   -2.67659463     37.13955470   23.68652837  -31.16710214      2.56579036   -1.79366665   19.41891720
    1    4.71194008    5.12229210   -1.23323321      2.32099472    1.31604724  -14.87173183     25.24455253   -8.16618006   34.83937023
    8  -10.05441244    9.52138367   -0.63174128     10.20746489    6.36285674   18.36760680      1.36976512    3.04630965    3.05374308
    1  -10.27295718   10.48516076   -0.48812048     -0.39233855  -29.46825743  -23.84730860     -3.08233304   16.29356489   -5.04610111
    1  -10.19075492    9.30508726   -1.60357599     -5.33950321   23.97988608   16.43959979     -6.85092641   14.01983876   -3.26911191
    8  -10.16317892    4.83189626    1.58275863     16.83777001   16.06899844    9.91049520     -0.38593628    5.82388653    0.76621429
    1  -10.03394087    4.79540403    0.61380411     -8.31643567    0.07260152    2.27763864     -4.00478954   35.01679014    7.28620775
    1   10.06327361    4.54177106    1.73077552    -10.02972494  -10.63908537   -8.67683336    -22.89753222    1.84245192    5.40085438
    8   -7.00961866    7.55230321   -1.05817548      6.15965692    8.28207706   10.71541902     -3.38260531    7.31147357    4.16277755
    1   -6.06580545    7.35669497   -1.17870800     -0.39246968    2.99252159   -3.29961601     -0.59690313   26.96805138  -25.35359836
    1   -7.42947810    6.84440117   -1.53490072     -7.85854896   -9.51882011  -10.32262328    -36.20254589   12.91127386   -0.33991340
    8    6.67677259   -2.16616922  -10.24105804     -7.99707586   26.99579036  -56.78473040     -0.63634728   -3.60013806   -1.86689553
    1    6.67460804   -1.56525520   10.08171355     -2.82097264  -34.31559709   17.48845403     10.25774462    6.29535246   12.56071706
    1    6.94831378   -1.55075840   -9.60248303      9.30995697   16.04006770   40.16627430    -22.99803274  -17.70483885   29.81478564
    8    0.03432625   -3.34984839   -5.33069308      7.14090805  -32.80238493   -4.61234803     -2.49071650   -0.05369473   -4.33700507
    1    0.70367315   -2.83247621   -5.81377962     -5.35053049   11.37976927    4.96829188     10.44895168    5.97976560   25.87120659
    1   -0.33727911   -2.76322171   -4.67504397      0.81859260   11.41166205    1.41293510    -11.34455647    8.49552032   16.57435552
    8    2.67410008  -10.22453800    3.77990333     -7.84182899   25.36919079    9.79212527     -1.71601912    2.03028230   -3.71292608
    1    2.30578358   10.09252575    4.15380753     -9.71942818  -15.36839632    4.14455725    -20.46047059  -11.72472814   17.60931900
    1    3.39700495  -10.55263481    3.26199990     18.11070612   -7.81418148  -14.39549713    -14.77540506    6.08719495  -20.33536849
    8   -6.42528501    1.75132218  -10.22653603      2.40606892  -24.82434965   -2.19058776      2.64450355    0.80177871   -0.35342072
    1   -5.55082116    1.49898718   10.53392514     -5.28028944    9.00550391    7.43084318    -12.13224037  -33.79100590   -2.25107244
    1   -6.73580982    0.88053416   -9.87834212     -1.22147086   20.91704194    0.39132799      0.46328597  -13.93330051   17.68007747
    8   -1.06175001    0.24548896   -1.60739615      6.89377100   19.89365613   17.71423552     -6.72188198    0.99438709    3.39083089
    1   -0.97916562   -0.47017907   -2.24451455     -1.94635917  -13.38442754   -0.74054381    -12.71432971   20.63794707    6.81420741
    1   -0.65102031   -0.11411413   -0.78622602     -2.05923662   -3.49822949  -13.69429166     16.06089261   26.67801776    0.24939038
    8   -7.03820004   -5.70790660   -4.63893738     -3.97082480   26.61334682   -1.20018382      1.54099548    2.85872472    6.89028745
    1   -6.49250517   -5.86969793   -3.84378631      0.49544794  -11.79594932   -4.12621856     24.69160802   -2.21086995   10.44741467
    1   -7.23917700   -6.56277338   -5.00520740      4.42921580  -19.43185482    8.00684858    -23.11655626   10.11145790   -0.82198961
    8    5.34094207   -2.61230543    0.50456533     12.06480139    7.25335098   17.82510533      6.63952144    4.87382031   -3.34418235
    1    5.12103923   -1.95786038    1.23702505      2.64670703  -11.58122820  -26.63632361    -16.25283438   -0.54958085  -12.84678673
    1    6.16837768   -2.97992151    0.85525163     -6.72404179   -4.31681097   -1.92463429     15.20367170   -0.61448519  -14.35659430
    8   -4.27947732   -8.12401679  -10.27761907     46.56376068   27.84511996   14.88255561      6.06801564    1.32754055   -0.28141437
    1   -4.27768837   -7.50848278   -9.49562272    -16.85514726  -19.35159983  -15.93675825     17.96824050  -16.40141795   -7.79808257
    1   -3.28963044   -8.11211553  -10.47643952    -29.41354291  -15.12512360    0.78575044      5.50610686  -12.61855175   -7.87186349
    8   -0.39136934   -6.84752805   -8.28338370     37.87759532  -87.00778684   23.93125467     -1.04590766   -3.73401916    5.38693669
    1    0.17901639   -6.71857041   -7.48823207    -12.95608423   -7.54552224  -14.42190238      8.07772212   -0.32133137    4.67016294
    1   -0.74027082   -6.02349784   -8.38277161    -23.49834929   77.53187419  -10.43944097     -1.42655942    8.44744738  -12.88173906
    8   -4.34969448    7.33173330    1.13179510     -6.15108684  -21.55118641   -3.13052180     -3.61861540   -1.89150777   -2.45366781
    1   -4.21870591    7.89525910    1.90018889      5.73966719   11.76826157    0.75146449    -13.84198068   19.75059025  -10.26202817
    1   -4.14756448    7.88698745    0.37278247      0.53617190    8.51595927    6.27614654     -3.83034404    9.73032219   11.46320087
    8   -0.12863326   10.32586550    5.83780757    -20.08615213   20.36366281   45.48123343     10.19209105    1.88084324   -3.92125063
    1   -0.10989616  -10.25510798    6.65613078      0.35210534   -8.04331577  -16.44633537     -5.08909946  -17.95847819   19.76327906
    1   -0.45138922  -10.18517234    5.18220122     -1.12592900   12.33753401  -13.10675317      0.45559744   11.49424869   13.03508457
    8   -7.48302645   -2.93846672   -1.98373223     20.52028160  -18.56802469  -11.28855922      7.26617828    0.10469591   -2.25411807
    1   -8.07851908   -2.50827193   -1.42019411    -30.36926297   30.41262302   24.07704827     -8.49746226    2.52796203  -13.58591259
    1   -7.35462004   -3.75313741   -1.48151946      8.49170656  -13.96157379   -6.81003471     -0.78126123   11.32832682  -15.48204848
    8    6.91671257   -3.38159531    2.84777324      5.88545816   -7.01312835   40.10200101      4.97431790   -3.71725955    2.54197931
    1    6.95458188   -2.75754348    3.63126413     -2.09443768  -28.36972279  -24.47426490      4.93482110   -1.62680193   11.43312028
    1    6.89499604   -4.28789331    3.27214595      2.05453128   35.80089020  -17.22525692     -3.40248639    8.19022428    8.92842996
    8    3.01356201    6.56414926    6.47565451     -0.49367972  -10.39195915   -9.88723013      5.57352682   -1.10028457   -2.58252217
    1    3.24414765    5.60677701    6.38031883     -4.72646515   30.81754947   16.05518582      5.38595503  -18.83086959   28.14091751
    1    3.34836936    6.86148713    7.35663189     -2.87059146  -12.76087974  -11.07597187      6.98419547  -15.76441277    3.75542933
    8    6.93661777    8.53297042   -6.71756453      0.77753076  -24.24869595  -46.60456334     -4.13408780    2.69528902   -3.15942965
    1    7.06303237    8.29574837   -7.68684805     -0.50095882    9.85039155   41.03524750     -8.26585622   -8.71596070    8.01220791
    1    6.26190223    9.22064416   -6.74785656      0.60621094    5.07780109    7.45228860     -9.93516069  -17.51158106   -9.86026045
    8   10.56127824    7.50904021   -8.62276228    -15.23271889   -1.43856805   24.13140641      1.81776719    1.63735833   -0.23703158
    1  -10.14654935    7.70551417   -9.45087928     16.75102748    3.50025397  -17.21330506     31.63286192   13.50990774   46.44243050
    1  -10.01453534    7.97151861   -7.96867846      6.29556265    2.78433691    0.03656694      8.17018632   -7.55471378  -18.19369865
    8   -1.58019064   -1.45261879   -6.90138307    -41.00184121  -35.37246223    1.39062781     -4.24301868  -11.19554965   -3.24563254
    1   -2.37688444   -1.85162255   -6.43711050     31.62276816    7.80188545  -21.27153582     21.22353896   13.62518843  -39.27570230
    1   -1.39808439   -0.70934138   -6.35067698      9.59143599   28.94390488   14.81231130      5.99927712   -3.47289060   10.08455452
    8    6.01744381    0.58678678   -7.69261400    -52.06452584   17.86596514   30.75363637     -0.09501385   -2.43237992    1.29734909
    1    5.16517894    0.84910165   -7.18309516     43.24796538  -17.35880456  -28.17565045     14.43521519  -10.88289856  -22.91954601
    1    6.33845209    1.44952433   -7.98701281      8.79850139   -0.24348003   -4.41380216    -14.38321657  -17.74616942   19.09316064
    8    0.20254401    5.45792030    3.00175388    -10.18431416  -20.07468328   22.82769891      0.19763426   -5.34733704   -6.56793031
    1   -0.16884778    6.33519944    2.86480952     -0.39785349   16.79286802   -5.00726740     22.32415469  -22.46689484  -13.00275257
    1    0.43750200    5.15134265    2.12797572      5.48556949    0.71304696  -13.65930658     19.10104017   -9.87940478   -2.42097185
    8    5.36115527    2.06932105    6.47436803    -24.26170517    6.81585465   14.01330830     -1.61800956    0.75255614    9.58081207
    1    5.56661804    1.66052068    5.64443563      1.25314290  -14.75486158  -11.52002262      7.97077306    3.10340352   -1.66803129
    1    4.47446588    1.68375079    6.70807557     20.86863088    3.02165663   -1.61493011     -2.53035344   -7.22306966   -8.54618407
    8   -7.66128157    2.07532756    3.50811045    -38.55193186   28.78864521  -17.37394799      0.45189993   -4.84268721   -0.69004455
    1   -8.54383768    1.99050695    3.06944907     18.11205561  -12.66581121   11.83802955    -14.71003366    1.89099244   11.08540216
    1   -7.67655070    3.04142543    3.67483494     16.30607366  -13.35105311    9.92998603     24.56999148  -26.16395521   -8.99117394
    8    8.05781822    7.68188526   -9.38605219      0.19144729   43.22106939   -6.41567494      3.53767474    0.18393056   -3.41554709
    1    8.17132830    8.63048941   -9.69094898     -7.64208033  -33.54727279    3.23464724      7.44964307   -9.26669262   29.44308233
    1    8.91970307    7.53117577   -8.95376367      6.26960061   -3.18165636   -0.39751253      4.65069450   22.41903078  -12.52885807
    8    8.24973366   -5.39432986    9.12974794    -19.69412404   30.98698894   12.06593199     -2.91946081   -0.96510976   -8.88431959
    1    7.96510618   -4.90714832    8.34613564      4.31367115   -1.53859818   -2.55000493     12.02097571   -1.90954857   14.87966046
    1    8.83307406   -6.03937828    8.78554106     24.08101029  -26.63081191  -24.39601115     -2.39945825    9.37975411   -8.48580040
    8   -5.73325967   -9.85446288    4.40195645    -17.49602786   -0.11184164   44.08205365     -1.23434809   -1.35270329   -1.88180484
    1   -5.99109509  -10.08521283    5.35842556     14.39528924    6.21835465  -35.21812536      7.53432054    7.69455721   -0.40885299
    1   -6.28571878   -9.06459599    4.26089957      4.05715898    1.99248420    0.65162168    -18.48422676  -26.78230239  -20.88566194
    8   -1.73409001   -7.61755488    6.63899710      8.15367674  -33.90332556   18.59861666      0.32449433    3.65596667    0.16968943
    1   -2.27295029   -7.97825205    5.90481722      0.26383776   11.41411388   -4.72675858      2.64730326  -33.60380522    8.91615536
    1   -1.89738418   -6.68553909    6.61031669     -4.04646741   27.75075582  -11.99406754    -14.42247786    8.83762678    5.48776745
    8    7.54363423    7.94115752   -3.98132247     17.49977365    5.56190134  -13.46051002      0.33907600    0.93101509   -1.94378829
    1    7.24051202    8.11269150   -4.89899392     10.05257857    0.45572254    5.61771404    -20.82073972   21.16737766   24.35440710
    1    8.44715163    7.53372409   -4.08956257    -19.62561978    3.96954509   -8.99748816    -10.31320362  -36.12023147   10.98979666
    8   -1.70412888    2.59331270   -0.16131966    -30.42630736  -15.06080836   -9.56370122      1.45861818    0.76553901   -2.59606255
    1   -1.46417645    1.81312365   -0.69361677     -5.14004762   -2.68705489   -2.09506085      8.02636998    0.23322092   -8.18937959
    1   -0.86618139    2.90214380    0.09651757     32.73454312   17.15175974   10.36226844     10.24993753   -8.80849865   -6.24841387
    8    6.54672555   -6.40208408  -10.39246358    -22.99159538   -9.50882102   -4.03098463     -0.80876592    1.97597048   -1.53384202
    1    6.95697915   -6.47483557   -9.53514712      4.11947422   -4.35797559   29.04067327     -1.09469469   -2.93653701   -5.68662479
    1    7.29952057   -6.09715262   10.21120371      6.26858206    8.04657616  -18.75149326      3.81166731   17.13648489   35.64500623
    8   -4.35033343   -6.84950962    8.42701975     30.11917627  -43.68821706  -19.59586126      5.08117404    3.61441915   -3.01186276
    1   -4.46800360   -7.38909023    9.24447819      0.72604506   11.35265819   -8.53580641      3.96777217   -5.77175435    6.15304839
    1   -3.79923403   -7.46664768    7.84014646    -27.88861254   35.32787597   29.69877681      7.66164627  -23.58868905   16.49527043
    8   -3.99542463    2.95866474   -1.84912480    -22.88034368   11.73544752  -41.71570764     -6.09109548    2.62508541    2.17668843
    1   -4.39429800    2.13252739   -1.56024524     -5.32649888  -16.57233624    6.63523796    -26.54138196  -27.39633279  -28.22384603
    1   -3.35657855    3.12663875   -1.19645403     30.71421963    5.32812866   33.22955719    -27.51313240   -9.58129861   12.14676112
    8   -8.22413992    5.54773198   -3.21932908    -28.44943075   23.00176882   40.42056121      4.55680346   -0.50576104    9.83237337
    1   -8.45763485    5.69133969   -4.12592061      0.51181472    6.48536870  -31.91911115     -2.57883392   11.15593161   -9.22026318
    1   -7.48141780    4.96788514   -3.25483976     28.62299940  -23.65324956   -9.47784406     -4.77360278   -4.66672870  -15.70602516
    8   -9.47967081   -4.86713299   -7.12116193      5.37945790  -24.99651744   -5.07353426     -9.71823328   -2.26745537   -2.57603121