 BEGIN_INFO
   #
   # This is a XCRYSDEN-Structure-File
   # aimed for Visualization of Fermi Surface
   #
   # Case: Tight-binding calculation
   #
   # Launch as: xcrysden --xsf HICOLM.XSF
   #
 END_INFO
 # estrutura final
CRYSTAL
PRIMVEC
      18.96800233       0.00000000       0.00000000
       0.00000000      18.96800233       0.00000000
       0.00000000       0.00000000      18.96800233
PRIMCOORD
  585    1
    8    6.74407156   -0.68562772   -0.94135338      3.86103309  -11.78148250   -2.55918856     -3.58606256    9.99989133   -0.23909584
    1    7.21188954   -1.39879456   -0.46421944     -7.14205121    2.23791257    3.76852727     -9.54819992   20.74474297   25.12502163
    1    7.44075248   -0.33046727   -1.51379351     -0.18654992    9.24727605    3.24983419      9.16144324    2.73664023    6.35827724
    8   -7.78207493    7.68528060    8.37715913      4.65527021   -1.44009239   12.27008071      2.88679694   -3.04432061    8.60366719
    1   -7.26413439    7.07135799    7.84146057      3.84183517    3.15156821    7.02781016      1.29779620    5.49080195   -4.85505972
    1   -8.50114843    7.89849182    7.76009227      0.79532049   -6.99644220   -1.83382242    -15.04981549   -6.35156474   34.21003414
    8    2.46621176   -2.39503999   -8.09997393     10.63192362    1.48830050    3.65742209     -1.12146984    1.60940130   -2.43044813
    1    2.25459694   -2.34157066   -7.15168182     -4.37722976   -3.30023637   -6.62453022     -8.18241426    8.35173539  -11.90563589
    1    1.88571450   -3.08651840   -8.41489211     -7.17082487   -2.33690621    1.04000885     -2.93428684    4.51500432   -8.14509919
    8   -5.36829643   -0.26683227   -0.47548525     -2.92424137  -22.12265481   -0.38113102     -2.88325630    0.27527231    2.39642425
    1   -5.90266389   -0.00383027   -1.24765974      3.25431712    2.94864484    1.74164023     21.18180580   19.02310425   -9.15552571
    1   -5.16390369    0.59339182   -0.02723376     -1.36292717   -0.30587434   -9.91900194      5.87704994   10.98232607  -15.23881963
    8    2.46993540   -9.38816487    9.36369976      8.26437701   17.07073632    7.93755732      6.78754087    4.59943920    1.09542519
    1    3.19693195   -8.88364672   -9.21286639     -3.36720083   -5.58490467   -5.66902264     -0.28012215   10.37383308    2.60478075
    1    1.71509874   -9.09079071   -9.06217652     -6.27005839   -7.93072465    0.38505535     -4.73270143   -2.41059999   11.18518798
    8   -5.22195203    8.85732856   -3.24449198     -3.29206323    3.75649890  -11.98653068     -1.72650311    3.09689418   -1.50105047
    1   -5.98096032    9.11924820   -3.82068039     10.01809122   -0.54591773    6.57534492     10.45990723    0.58159897  -17.27207481
    1   -5.23804405   -9.44721210   -2.54473857     -0.12880318    1.86464915    2.02799970    -14.49348028   -1.02726570    4.72174457
    8   -0.96869733   -2.59947094   -0.92060324     23.91759301   -9.73357675   -5.61337602      1.34289399    1.28724720   -1.99021548
    1   -0.36401056   -3.33581611   -0.69968864    -14.57272567    6.44636085    1.20761489      1.27555908    1.58033456   17.84120180
    1   -0.94602076   -2.60055349   -1.89482170     -9.44921191    0.57209607    9.80861408      7.26696676  -26.23032808    4.53059005
    8    9.33072175   -2.43906353    3.41233149     23.69774344    9.44001979   -3.13366720     -3.42452205    0.79914987   -4.23462422
    1    8.62632266   -2.47343724    2.76206389    -10.24499396   -4.55319765    7.33558173     -0.71171636    8.87849815  -10.37126985
    1    8.94396158   -2.77082381    4.23207148    -11.32786778   -2.10316948   -2.14558680     13.79307962  -26.87669960  -13.13545407
    8   -4.10360015    1.87117178   -7.93716530     12.31440346   -3.67278612    8.64384804     -0.98315228    0.05540535    2.83296680
    1   -4.74800219    1.44585663   -7.36130178     -0.16644982    2.94416171   -2.15203374     36.36767430  -40.59164243   21.66712794
    1   -3.57516936    2.43727321   -7.33357298     -1.36807227   -7.99948408   -6.08038323      0.29147773    5.01867880    5.67395896
    8    6.34240575    2.08959870    0.43370414     -3.72824818    0.41545965   -0.22666951     -0.11875829    6.54528508   -2.97310694
    1    5.91558818    1.47856011   -0.18263218     -1.91584320   -0.31977419    6.55743050      5.69830245   -9.87474190   10.85071830
    1    7.24406378    2.09788674    0.12218760      7.56544036    2.11502573   -1.65554546     -1.25703859    2.41088135  -12.55912045
    8   -3.37952454    7.87788043    6.54308386     -8.05405888   19.41962586    2.42403905      1.13893810   -5.28968201   -2.17321898
    1   -3.79218955    7.06296646    6.25383974     -0.62646865   -2.11802432   -6.25091977      1.65914617    2.23464479    2.61929790
    1   -3.60729608    8.53478071    5.85683708      3.59227015  -10.05971423    5.21931778    -18.56083602   -0.17369203    5.89801883
    8   -7.19512867   -9.24546320   -4.87141901     12.90102892   -7.44998876    2.88010999      5.28944856   12.14616102    1.31025545
    1   -7.80703079    9.19613488   -5.40921360     -4.99949069    9.35221966    0.41018682      9.26009576   20.97919070   -8.12938154
    1   -7.74056171   -8.65330403   -4.33057145     -7.15666541    0.58030646   -6.46522290     11.03460713    8.76204538   16.36613852
    8    8.95189841    3.32283797   -3.34243812     11.03988907    2.20240539    9.92321561     -6.19029493   -5.43953392    1.43343470
    1   -9.20299010    2.99460028   -2.91624580      0.17159758    6.58977382   -6.62756845     -7.11630189   13.82424491   17.18685810
    1    8.84664610    4.16451137   -2.86827711     -4.78159374   -1.51177981   -6.86726464    -11.85171215    3.69303351   -7.65068630
    8    8.84122634    0.91816842    3.79285254      1.88764012    7.49756068    4.08821090     -3.83200474    5.82824127    1.66737213
    1    9.11824718    0.12449298    3.32881744      1.43798117   -5.07368509   -1.59703527     -5.56412020    8.34027304   -3.09671779
    1    9.33759607    0.86670682    4.61773492      3.16450182   -5.10381074    3.47323146     -3.93353012  -10.72045956    0.34434187
    8    0.13859655    5.81370602    7.87671538    -10.97672377    3.19781430    1.82960373      2.43097686   12.77412813    3.56727461
    1   -0.76191455    6.16707591    8.01120640      2.39643050   -4.30472242    9.67892645    -10.63517236  -15.82803881   11.94781813
    1    0.28385542    5.97853828    6.94668253      8.59514186   -2.10109451   -5.54810271    -25.53858375   -4.89458402   -3.77270482
    8   -0.23745184    0.54102199    1.80019163    -15.77516396   -7.88367839    4.49972637      1.58641070    3.27120738    1.62453076
    1   -0.83057779   -0.07653446    2.23443821     -3.25531541  -10.84301873  -13.46834879     -1.23575155    4.96543100   10.22500078
    1   -0.02483045    1.08621800    2.57497496     17.28602705   10.77001208    0.42399207     24.76831038    6.34947280  -10.05608846
    8    1.01177140    4.67960434    5.50102331      6.63743203   -0.70173123    1.54259598      5.29648951   -1.69379027   -5.00230822
    1    1.96467899    4.83959312    5.33810435     -4.18652146   -6.22803408   -3.25750845      3.65153093   17.72587378    6.96305634
    1    1.04090642    4.03529444    6.22809893     -3.87700755    6.59577719   -7.95895497      3.86600410  -14.23536671   -7.15984996
    8   -7.99972459    2.54288571   -1.62563516     -0.76603915   11.83043446   -7.68683762     -4.43737494    4.25183572   -3.66200137
    1   -8.14874999    1.69138213   -2.05810123      6.23214979   -6.18668595    2.01339735      1.27980984    9.71814057  -16.24826581
    1   -7.65770326    2.25615926   -0.77171505      2.21617400    1.82612813    4.43518811     15.59137731  -12.64524483  -14.49055282
    8   -6.61839112   -6.49855275    8.40408655     -9.58201827  -11.82634032   -3.54568917     -6.75885831   -3.32267212   -3.84158450
    1   -6.70187381   -7.38514120    8.01980459      3.78078830    5.60632028    2.31596163     -8.34571580   -8.78459911    6.59267792
    1   -7.08268783   -6.59255913    9.24799184     -1.17910226    2.44101277    0.10091308     -3.46786755    5.92085948   -4.87983885
    8    8.00313684    7.15919107   -5.62749044      6.12904867   -8.13576073   -1.54625158     -1.72920535   -3.15510044   -2.20301878
    1    8.89323097    7.40133422   -5.91411589     -1.52293304    1.21817175   -1.26942320     -9.67054432   16.15243512    2.62862984
    1    7.98229503    6.18557675   -5.78383301     -7.44609643   11.69635767   -0.69666580     18.29711294   -2.83902685   -7.60228823
    8   -5.81535931   -6.20403069   -7.29792577     -3.82367878   26.48186593    1.11935896      6.26008611    1.63231637    2.67962951
    1   -5.22159547   -5.63038182   -6.76599524      6.91301710  -14.89357380    3.87616338    -12.40919009    6.44117391    8.59338273
    1   -6.50375511   -5.55200078   -7.48844718     -2.24124968  -12.68799328   -3.35254118     -6.54925804  -16.08094734   19.60408751
    8    2.54984276    6.83569165   -2.16775125     -8.27394170   -2.45426803   -0.47825718     -0.24787369   -3.27987880   -6.07516327
    1    2.35775344    6.10539100   -1.56672615      3.75920569   -4.36954582   -0.72551799     22.88733856   -6.32358199   -2.60293471
    1    2.28847225    7.58537011   -1.60702425      6.01116550    5.78269122   -6.93863965     41.00151163   -0.87715261   23.08076540
    8    5.38175635    8.14613343   -0.66883525     -9.41173650   -4.97699892   31.11082447     -6.41237144   -4.17511847   -1.59953437
    1    5.58086480    7.23443066   -0.92243325      4.98272520   -5.06001272   -3.31056268     -9.81283206   -9.78479050    9.46926998
    1    5.48357168    8.61153439   -1.51335505      4.28665516    1.19186007   -8.76583265     -9.40492690   -3.80960193   -2.88350169
    8   -3.60531876   -5.93735869   -3.35162105      6.60660868    4.24518240    6.86690087    -10.13939457    2.06532978    8.49838547
    1   -3.41090550   -6.76193829   -3.80550340     -2.71177892   -0.55164515   -2.74852808     -6.87362670   12.96607814  -19.21328630
    1   -3.64557012   -6.20751784   -2.42422268     -3.38838745   -2.03878488   -3.57425202      4.17308273  -11.21742913    3.59884482
    8   -2.38297989    3.81060756   -6.93786601    -17.00193527  -15.97708927   -0.57090514      4.39278460    1.00659552   -3.15325894
    1   -2.90390566    4.59917156   -6.68552229     15.56860531    4.44061175    1.65575829    -17.74818013  -17.70903755   -5.17156813
    1   -1.65350060    4.11455402   -7.47670675      1.16588786   13.68863925    3.06421245      7.57923270    2.41895453   -2.49827120
    8   -1.11251529   -8.86547555    2.23275978     -6.36389534   -1.76095031   27.29419846     -0.50569464    8.94289184    0.73440098
    1   -0.36757045   -8.32582826    2.57571989     -2.54864593   -0.54894316   -7.56378812     13.82337360  -11.99502056    7.55097041
    1   -1.69035139   -8.86900294    3.02067145      0.07715680   -6.22268002   -5.69030287      1.20954842   21.48365693    6.98999143
    8   -4.36682052   -3.41873314   -1.60415347     -1.09745095    0.91404582    5.52651519     11.37781941   -0.94577942    3.58114639
    1   -4.61296515   -2.64357648   -1.09250722     -6.99833512    6.94144368   -1.83125292     19.93825779   -0.88049719    7.48339580
    1   -3.46496808   -3.22148121   -1.85026041      7.15902592   -0.09680957   -4.85442983     11.05226986  -14.22072636   13.39719244
    8   -2.28515001   -5.85399364    7.72079943    -10.68635057   -1.40516033    9.68256323      1.67613933   -3.54959863   -7.72303491
    1   -1.35976515   -6.15811423    7.81855525     -6.82244947    3.66215710    3.75977247     -5.83636401  -18.63305908  -16.82913183
    1   -2.41585980   -5.86728293    6.77530278      3.89799738   -2.43358498  -13.05583986      3.89246034  -18.07663656   -3.91106376
    8    9.22367650   -8.99807013    8.92037649     10.73475344  -21.79523273   -5.65279447      2.37258129   -9.00445319    4.19689472
    1   -9.47395827   -8.47195692   -9.28691576      6.13007046    9.15706925   -0.44788954      7.78560150    8.81344517    1.20866458
    1   -8.94971643    9.46288870    8.70154281      0.87369310    2.68903555    4.58308398     -6.15954344  -13.02006265   -6.55650445
    8    5.89508281    3.93675966   -8.19100054     -9.86703114   -3.62026676  -18.70302962     -3.57086518   -4.38355128    2.30816282
    1    5.57216284    4.29738987   -9.03446231     -3.71108952   -3.06207790    4.31808037     22.01521697  -11.79083447   -8.76722228
    1    5.07695875    3.87625660   -7.66496305      5.00311706    4.85028824   -4.24088332    -18.00778450   -0.31455969  -11.06931995
    8   -8.18164732   -4.16182956   -6.48106544      8.05248049   -6.36706996    2.59446733     -1.71372104    2.64957667    3.56569661
    1   -7.64216114   -4.12546145   -5.66401991     -4.66125646    1.39342740   -2.95102100    -19.75732162   36.81542888    2.44955377
    1   -9.07416956   -4.26687059   -6.15240150     -1.59341131    1.84010621    2.45344374     -7.20412750   21.48284403    4.58717883
    8    0.49863945   -8.83253885   -7.75212700      6.57158045   -0.46558154    7.63268118      4.02836798   -1.73941602   -0.48845434
    1    0.41470344   -7.92997865   -7.39997867     -0.36337492    0.06584354   -5.73871346    -24.40619620    2.19276896  -11.91694842
    1    0.56508676   -9.36884026   -6.95563542     -1.76808425    0.55759004   -3.91360107     -5.47849983   -0.95282615    2.51810677
    8   -8.81617306    2.72912942    1.55125162      3.91582854   -0.65907954   -1.19290193      4.80783958   -9.58763950   -1.53341429
    1   -8.93068588    2.28753026    2.40284893     -0.61842269    0.70715693   -4.25232393     -0.13121365    6.86456941    8.03280094
    1   -8.43958010    2.01337682    0.99187340     -7.40241906    2.75671387    8.84358545     14.06051155  -12.23964659   12.40421811
    8   -3.85108419    5.64853653   -5.46602381     -5.61359363   -4.65582111    1.08034829      0.25115678    1.25285677    4.21747788
    1   -3.81657445    4.97611100   -4.75889903      2.19296446    1.10745115    0.39989459     13.45028689   -1.77991025   -0.49750886
    1   -3.71433380    6.47928997   -4.98924707     -2.76645277   -5.62570305   -2.53663982    -25.21278168    7.75083931    5.07098647
    8   -8.13692572   -5.69277748    5.81904524      4.50400341  -12.98034338   11.15673621     -6.24578835   -2.18885401    0.29627746
    1   -8.48775549   -4.84596852    6.10623371     -1.87276897   13.83006122    2.27593596     -0.75392038    5.62786415   -7.78636354
    1   -7.79192596   -6.04329974    6.65269520      4.59268218    2.64905939   -3.15984014     22.29936491   16.78308715    0.24745255
    8    2.93287377    6.76063502   -9.34676322      4.45540403   12.87245604   13.76599536      0.59882308    8.02850163   -2.52216303
    1    3.09909611    6.68158378    8.66267560      1.63169976   -2.19674984    3.47953312     -2.23632342    0.13236929   -2.44312437
    1    3.22066118    7.67390177   -9.16922257     -9.82681545   -9.39340697   -6.98544092    -19.57594632   18.84519427    2.37575740
    8   -2.47808022   -1.96381984    7.76925656     -6.66826750   10.66470865   -3.51271292      0.97539841   -8.48417855   -1.58991835
    1   -2.91772967   -2.41249325    8.49637878     -0.38757073   -8.55725255    4.70525024      7.13708548   -5.82320683   -5.27353449
    1   -1.61745811   -1.71185340    8.14513980      6.23392420    3.20460103    7.40416682      5.09278282  -14.92430390  -15.05207521
    8    0.70669727    1.54630581    3.98917109    -13.99989099    0.81951942    2.52835734      3.51383712   -1.03232482   -3.02778839
    1    1.05249722    2.44199082    3.93861275      8.44500876   -1.30352647    3.91593971     -7.68606955    0.24640663   -8.76711917
    1    1.46277900    0.99027882    4.20270530      7.19849661    4.65918087    4.67752804      2.81893507   -2.08038362    9.94886429
    8    3.60854378    4.19356149    4.71077441     -2.43754852   -4.13177733   13.90711051     -0.58915957   -0.88390204    0.60976203
    1    3.76218862    4.38357810    3.77862328      5.62129290    4.99836176  -10.48315641      5.77778597    2.55583682    5.18107033
    1    4.50223555    4.09788696    5.06027114     -4.40726461   -0.11061508   -2.15647935     -0.19346729   -4.84377815    0.65860846
    8    4.18410186    0.28570728    2.74843966     -8.16276182  -10.43846397    9.96970745     -8.37023761    4.06196196    1.60858850
    1    4.45919763    1.11619179    3.15735752      5.50825691   -3.26280469   -2.51849889    -32.83201248    5.65508745    3.90318985
    1    4.69067279   -0.40369437    3.19959326      4.43990814   13.62948785   -3.09356279     14.08295938   20.34652959   -2.89935887
    8    6.05052303    3.20630582    6.54383032     14.80544515    7.17585119  -12.37808741      2.94561286   -5.85087329    5.68486573
    1    6.92961339    3.48943698    6.24184604    -10.09789002   -5.83346437    7.92052443      6.93662607  -12.11921053  -14.10511228
    1    5.83018280    2.48974482    5.94247974      0.65138288   -4.57767010   -3.39668936     -6.43179656   17.07004150   -7.94324146
    8   -8.68896497    3.42049405   -5.91525702    -21.97109657   -6.89942577   -9.96332293     -4.77537312  -10.02824104    7.95965183
    1   -9.30369933    3.78515122   -5.26440038     12.81092784   -4.25583786   11.93773711     -7.37461703    1.91957033   -9.41806799
    1   -7.97913820    4.10494421   -6.01196663      1.82792657   -7.68710094    6.30294092      3.63313001  -16.60014334   11.16540226
    8    5.38712346   -8.84417916    6.47828292      0.78741908   -4.62524555   18.54287523     -1.15343385   -4.07679938    2.47250273
    1    5.92840219   -9.32677800    5.85385880      3.90854011   -3.92464013   -6.09677569     16.37989567   -8.67615764   27.21745683
    1    5.98510372   -8.14159719    6.81405478     -2.16873023  -11.50067459   -1.28325529    -13.75000963    2.09068692   20.21291051
    8    1.16613085   -6.15817518   -7.08722022     -3.35517202  -10.35797669   13.13571192      1.86526016   -2.63618730    2.25775385
    1    1.63393762   -6.32684867   -6.23547040      0.03007307   10.58595760  -12.63657795     -2.62118115   33.23515356   17.56340496
    1    0.38466085   -5.67468333   -6.78806602     -0.30296905    3.77018944   -3.79834516     -6.34107799    6.96953704  -25.17527818
    8   -1.36386275    1.67578553   -4.98300202     24.17375811    1.55747175    0.14774886      5.57079110   -2.15501418   -7.69541422
    1   -0.71078035    2.35398938   -4.72170174    -15.21872640  -10.44385362   -4.52048879     -0.51227278    7.96285098  -35.91347257
    1   -2.17546351    2.19404809   -5.06531511     -1.92257460    3.49274285    3.15981031      1.57375961   -2.55830991    1.48639299
    8   -7.81151676   -4.54144882   -1.43425435      6.08645913   -4.29015345   24.80235647      5.82589288   -3.01033413    7.26735884
    1   -7.18623297   -5.25893398   -1.27323273      6.30105371   -5.28815279   -4.26310135     33.47324513   19.24521685  -10.91054219
    1   -8.15236806   -4.43276361   -0.52440192    -10.98624089    2.50645198   -8.93766447     -5.19690925  -35.26233799    6.05838413
    8    2.62208978   -2.58464264   -1.63524185    -20.55080042   12.65541751    0.33885421      3.36084859    3.94334083    1.05016910
    1    3.06550579   -3.28590238   -1.15578516     12.39141308  -13.47581452    9.72372860    -14.70397148   -3.34632855    1.50079022
    1    2.25513917   -2.05130257   -0.92046522      3.70539568    4.49076466   -2.28410221    -10.61382210  -16.40439180   20.78181410
    8    4.08258928    6.85143206    7.23519711     -8.49639137    0.81697926  -23.17988991     -2.53203256    3.15577422   -2.04701242
    1    3.84159484    6.88751503    6.29928125     -1.09051581    4.91380984   -0.90170676      1.90650923    3.51482187   -3.87450586
    1    4.71183991    7.56754561    7.33323058      5.43146961    7.88640418    0.43148173     22.12122812    1.21486055   -3.39377889
    8    3.51747726   -4.99162673   -0.83392095     -0.07538494    7.60906875   13.97916573     -1.22231400    1.77702460    7.01483382
    1    4.30507659   -4.98669266   -1.38385986     -3.44224207   -7.10941631  -10.92546651     -1.50393028   17.89244142   11.78923126
    1    2.79409410   -5.29987476   -1.38839258      7.44010261   -7.54549720   -6.49950180      8.66210021  -29.20441737    8.76997894
    8   -0.25547585   -0.36681366   -7.15715141      1.89636044   -2.46375821    3.73609880     -0.62874331   -0.06738884   -2.27321060
    1   -0.05370649   -1.20373846   -6.70879380     -3.00642653    7.73213158   -5.40314048     -7.00360382  -12.62301916  -15.56393090
    1   -0.46028265    0.24650777   -6.43413761     -0.68790627   -4.45186238   -5.06560688     -4.45230360  -11.83300460    1.57479924
    8   -6.30091420    7.10643591   -8.07401058      1.31925267    5.67840714    0.72606865      0.08779327    5.15336161   -3.84117917
    1   -5.47701813    7.09554152   -7.56467791     -1.40652615    0.93939610   -3.19621866     -2.14257101  -11.44207340  -13.21629613
    1   -6.10969939    7.72766090   -8.80495451     -1.43709780   -6.83393181    3.20924991      9.77741103   -9.21035434   -8.03242487
    8   -4.58828377    3.07251817    5.14235052     -1.41169233    2.63865948    0.43179681     -3.38779463   -4.34148985    1.84025020
    1   -3.67426279    2.77709253    5.06638819      5.22994166   -6.02748327   -9.27066824      5.68190596   31.36932500   -2.30099416
    1   -4.83506091    2.76608082    6.00585114     -7.23299308   -2.56278538   12.62535125      1.14989097    1.75339921    2.97500146
    8    2.53329350   -5.99742205   -4.76552977     -2.99491614   -2.58878979   15.08005670      2.44353331   -5.80755113   -1.63028453
    1    2.92553256   -6.69924954   -4.21084231     -5.19463079   11.76214344    1.55073896     -5.09785000  -14.03334077   -3.19431390
    1    2.11223666   -5.37498930   -4.11426438      7.43643131  -15.01126685  -12.70878277    -19.23305186  -16.35334122   -3.75848303
    8    1.00791245    8.41228518    2.10237441     -5.71915356  -10.07206680    1.48888424     -6.53321704   -3.12847278   -8.17954746
    1    0.71351929    7.47102374    2.09584564      2.17340642   11.38118335    0.40830399     -8.90898512  -11.20159360   24.30777724
    1    0.19463877    8.91186350    2.31862637      5.32290436   -7.96665585   -9.47332416      2.35962327   25.79712030  -26.00878339
    8   -8.88650044    5.77330745   -2.63914578     -4.23012865    6.63312750    2.47309594     -0.29397902   -1.23277936   -2.04895936
    1   -7.93119005    5.74092351   -2.74763709      6.03383839   -1.33733309   -2.53718125     -5.25766593   -6.30888576   17.36728943
    1   -9.16120421    6.41637808   -3.30037821      0.55886359    0.36395111    0.58893640      5.93461267  -13.93725174  -17.79380209
    8    7.51693590   -5.95898936   -8.95409046     -0.16144766   -6.35557369   -3.77528471      2.15143307    0.83806982    1.30452416
    1    8.00560688   -6.39027896   -8.23938731     -2.06672901    0.67182188    3.24681286     -3.59218885    0.43483285   19.79884376
    1    6.96884798   -5.31430308   -8.49334651     -3.39783210    8.06797843    5.41413344      2.15029542   -3.85188883   14.67990537
    8    2.85117126   -8.34115852    6.80345390     -0.70152668   11.20667129   -6.17212216      2.09515969    1.57079699   -4.75137513
    1    3.74906546   -8.73942609    6.75242949     -3.94060937    7.56008705   -6.41377512     -4.70834233  -11.70486891    2.84600896
    1    2.45979322   -8.78307471    7.55674969     -0.81183796   -7.28607827    9.37908683    -10.60008437   -8.68725187  -15.18660466
    8   -1.26639860    6.65736214   -1.62900050     -1.59652608  -18.02674540   20.36017073     -5.65844791   -0.91771129   -2.89937728
    1   -1.33397785    6.42458635   -2.54397958      0.03391318    5.62308917  -11.39887649    -13.44767207   17.15559046   -5.63492002
    1   -1.22659983    7.61355065   -1.59047368      4.01030221   13.67421226   -7.27072469     11.41264341    4.59148810   13.55940246
    8   -5.93438904    1.74327262    2.99557017     -4.40522405    1.59576451   -8.87051175     -3.88117965    4.05521516    1.56947985
    1   -5.52407969    2.08568711    3.80628104     -0.58068894   -2.72884603    3.23106048     -9.32129284   -0.04453068    0.68432179
    1   -6.25551159    0.85713830    3.21364209     -2.62771808    2.81329523   11.83593521    -16.89297245    9.24038986   -2.57218894
    8    7.99067389    1.86528222   -8.92518942    -11.19689338   27.59866510    4.72631728      4.94381181   -0.49206473   -7.32001164
    1    7.74117169    2.79435522   -9.07157951     -3.44376590  -10.35258876    6.35289615     34.70279253   12.02395899    5.52417169
    1    7.72211114    1.69010200   -8.01194261     -4.14036822    4.27772981   -2.88131498     18.21823796   14.97233171    6.59218560
    8   -0.95926597    2.80246015   -2.04481013      3.98490227   -9.08258918    3.82291697     -5.02820858   -1.43016573   -0.37974714
    1   -1.03839436    2.96708221   -1.09444810     -1.58147607    8.88719818   -1.61199522     17.39062615    7.47741219   -1.49455034
    1   -0.35824776    2.04922150   -2.06382213     -2.63519124   -0.53811812   -0.38350280    -29.94190105  -20.07673526   -2.21956968
    8    3.79613211    1.09195677   -3.24509632     11.05211757  -12.12932371    7.65562851     -2.37261057    4.14756582   -1.05627823
    1    3.06687261    1.07716971   -3.86684952     -3.85178467    5.42828259  -10.28656741     -9.61369033  -22.58064700    4.53528779
    1    4.51976646    1.47368175   -3.76404103    -11.13759491    1.96780100    3.64397664      4.06120370  -23.77672142  -13.05153779
    8   -4.23897451   -1.16799677    2.92840566      1.02795780   -0.14980375   -3.47541321      0.38709433   -2.29602148   -0.53619961
    1   -5.15683468   -0.98043803    3.15911027     -0.17754386   -2.07842536    1.65417721      0.23506339    3.38334000   14.67239272
    1   -4.17707064   -0.87341034    2.01095026     -1.66491078    2.04526637    2.81461538     11.54208177   -8.31098298    2.69476668
    8    0.65180995    3.77175056   -9.32287346      5.27613369    7.78793367   -9.08981370      2.40680980   -5.41189087    8.82140308
    1    0.91723748    4.50428571    9.04345565     -7.68278253   -3.04529447    9.76665927     11.30254243   -5.27448500    1.56466918
    1   -0.29168244    3.70663800    9.47278991      2.72488143   -1.32073452    0.85904022     11.64948973   -7.48713344  -16.20944023
    8   -4.94388887    1.98163551    0.58364683      6.18371430   13.74182213  -10.62188410      1.69908788   -4.02021965    1.44119572
    1   -5.39429281    1.98804019    1.44452431     -0.51570611    1.50752328   12.51340962    -19.09669751    8.78467766   -9.40605246
    1   -4.50627474    2.84381392    0.55653399      0.04143378    2.80634871    1.34759411     26.12317878  -11.94001298   15.47849386
    8    6.61778199    2.34178126    3.64882302      4.54885970    1.15781130    9.86719099     -1.31808832    2.95011698   -2.67373502
    1    6.62110664    2.26565407    2.67943279     -2.91536222    1.36272857    2.08611124     -3.99441260    3.02290164    6.12376953
    1    7.42589097    1.84011260    3.90803821     -6.81241597   -0.63891867  -13.59895499     -4.22167206    3.14119115  -15.78786711
    8    5.25323969    8.19823412    3.97914867     -5.45661082    5.23541039   -2.07607011      4.32820727   -0.98371750    5.55356613
    1    4.34843596    7.81879118    3.95707523      4.78078489   -2.54486976    3.76842252      5.08746206   -3.84677271  -46.35980938
    1    5.05465498    9.13050587    3.85328441      0.28665121    6.77056994   -2.10606449      1.34531746   -0.34885928   -7.04641041
    8    8.90670046    6.67399020    1.09648601      7.61823720    6.66228750    6.87772930     -7.60665599    2.66117883   11.04568627
    1    8.74414047    5.78283750    1.42069296     -2.82133770    1.01422468   -4.92195562    -13.44860881    3.31240637   -9.49926159
    1    8.45034537    7.22159195    1.76179173      0.51054727   -3.70176136    0.46821032     16.75802873   -1.38728664   27.86591971
    8    2.63423626    0.46608714    6.36669633    -10.98957571   -6.86923101  -18.38292410      4.99719203    2.84899259    6.05500448
    1    2.70618420    1.28758273    6.86731309      2.19871802    1.38290418   10.50761903     -9.02775578  -12.40937368   27.92315368
    1    3.26973409   -0.11693429    6.77061014      9.38238048    1.21267113   11.04029372    -22.74893493   -9.26340400    1.86134813
    8   -4.11469377    5.01353740    0.94562715    -10.30755890    7.15471156    3.01452106     -9.27148092    3.59785414   -5.04198346
    1   -4.14906474    5.96698577    0.76409951      4.69688960  -14.41231794   -0.68509339     43.81240535    6.47136408   -7.12178617
    1   -3.95679734    4.96686086    1.92011428      6.66742948    1.83052525   -8.52610134    -14.76645005   10.31363708    1.84922277
    8    5.62494211   -8.68444052    1.01034092    -26.89993809    8.36972872   -8.84163514    -11.55018561   -8.42622468    2.72323697
    1    4.67146951   -8.49769560    0.92666214     12.02125841   -3.16795643    8.32637418     -2.22172866   -2.85116501  -19.18314698
    1    5.68142390   -9.47610005    0.46256598     11.47936680  -14.06713745   -4.34473951     -5.98843650    9.96611258  -19.40624712
    8   -1.76855849    6.43195987    4.61129890     -3.09018958   -3.28634293   -2.96100911     -1.32667179    0.51130119   -1.13980451
    1   -1.13215004    5.91385322    5.10297237      6.38479245   -3.13550974    2.27572827      0.27049134    6.67240140   16.70098675
    1   -1.63268265    7.32438220    4.93264875      0.34489637    4.36713002    2.61433016     -9.38772546    8.60223677  -12.17186580
    8   -1.56651439   -3.93009091   -3.49334192     -3.00749383   -0.03920823  -14.95338853     -8.31043085   -1.86245329    0.41839395