 BEGIN_INFO
   #
   # This is a XCRYSDEN-Structure-File
   #
   # aimed for Visualization of geometry
   #
   # Launch as: xcrysden --xsf HICOLM.XSF
   #
   #
 END_INFO
 # estrutura final
CRYSTAL
PRIMVEC
      20.00000000       0.00000000       0.00000000
       0.00000000      20.00000000       0.00000000
       0.00000000       0.00000000      20.00000000
PRIMCOORD
  306    1
    6    7.50233225    7.43486473    7.57450646    -26.45925601   -7.18427092    8.96716856      0.71001003   -1.67222337   -0.93064336
    6    8.86471620    7.42468506    7.63301836     28.88047756    8.53883011   -0.31063523     -0.70379042   -1.83626801    1.78812606
    1    6.92878479    6.80638220    8.23542208     -0.87919800   -3.93902897   -0.83827944     -1.74427435  -12.39817194   15.31510676
    1    6.98791083    8.29146370    7.22977851     -7.24881599   12.56966323  -10.24791643      7.49834528   18.49919289  -11.64768204
    1    9.45194516    8.27120638    7.30702968     -1.71266179   -0.51274650   -2.95425301     -5.26826432    9.62863271  -32.31211539
    1    9.35853780    6.81146577    8.34539705      3.97033856  -10.84612313    2.14174402    -11.60367981  -16.13387790   21.46615549
    8    4.60182162    7.08506332   -9.27827167    112.05194984  -40.54996543  -46.95765594     -8.86872775    2.39031766    2.54520920
    1    3.94061630    7.71052691   -9.17139271    -64.57535119   -8.81428360   49.18337893     -9.99173313   37.09061460  -55.59262395
    1    4.58805244    6.24600055   -8.73986747    -51.09293487   38.40003953   -0.19444790    111.05208506  -64.35997451  -43.90730746
    8   -6.13549313   -6.27550874    8.68109023      3.38030552    3.67159874  -25.31117961     -2.78912633   -4.76994532   -5.65525672
    1   -6.79604502   -6.94232623    8.46404911     -2.63878193   -2.70437368   20.06018659    -87.90619884   28.15391265  123.88603835
    1   -5.56334161   -6.33960585    7.91010758      6.62168844    8.06802335    5.97196878     82.15832679   90.05589041   52.29420244
    8    7.36313603   -7.53415581   -6.97209625     45.04314149  -12.41767657   34.11064761     -9.19711669    5.75185278    5.36375417
    1    6.45857289   -7.29617033   -7.01553645    -23.94762169    6.93857175    4.79661184    -29.98214168  -63.20491953  -85.11762144
    1    7.60765703   -7.37747862   -6.00772282    -18.05293640   -0.84635673  -47.92977958    155.66483969  -54.88259747  -19.48178589
    8    3.61750202   -8.74670146    4.56405702    -16.37636424  -32.16498455   23.42953859     -3.44529883    5.37508370    4.83727629
    1    3.10923964   -9.37566494    5.14114506     20.74724376   13.40480598  -21.17992613     74.92989647 -143.82015205  -63.60477645
    1    3.19643932   -7.92862497    4.79886940     -3.14735936   17.90939846   -1.86415255     56.81198633   71.43094449  -62.81855358
    8    7.27620515    9.77051343   -8.63301330    -20.66916789  -16.44689037   11.06424508     -6.94125689  -18.70924450    2.58517390
    1    6.54084465    9.18452290   -8.89341341     12.62401767   11.09902897    4.12609728     35.08674726   38.28188680 -129.42090837
    1    7.26775500    9.71262534   -7.66151799     -1.01216130    6.54807631   -9.54199183    107.13626420  108.24538471   21.02731160
    8    8.57467804   -7.34427815    0.97902690    -12.76908602  -46.29018593   71.08789840     10.93878771   -3.79222522  -11.73328588
    1    8.62477634   -6.82204541    0.19142720     33.23709239  -21.71691215  -28.21777770    -42.88841521   60.97371538  -15.08364690
    1    9.15784436   -8.18736806    0.99717915    -16.68394830   67.00336439  -41.69026817    -66.99806076  -75.76563428  142.17811369
    8    0.24496325    6.72914710    6.50758693    -20.18177536    4.40992071    9.56634123     12.39350347   -2.99501483    1.59220275
    1    0.81935456    6.65837732    5.72773541      6.61111168    1.07109563    8.19970155    -72.52443683   96.86303848  -70.88374525
    1    0.63120075    6.15736535    7.18829299      8.78648745    4.23099252   -7.90733393    -46.68416144   88.43909525  115.92730648
    8    7.81953305    1.10138198    3.99588628     19.73276697  -44.18826365   -5.45892054      9.56566982    9.47005875    0.47937775
    1    7.78820116    2.03296356    4.03485740     12.87385714   28.41447585   -5.47072801    -96.80912291    7.04261800  -15.85423605
    1    8.75449045    0.84985607    3.74254676    -29.72060404   19.36736559   14.31129457    -19.56041324 -169.02666185   31.86678659
    8    8.85547397    0.07398840    9.66627717      4.72822459    6.81318948   29.82117169      0.91755712  -10.55259528   -3.83728567
    1    9.47044151   -0.03904031    8.93173946    -17.45187803   -7.98284145   -3.14337316    113.18120835   93.61420324   57.01559051
    1    8.13815789   -0.55430030    9.55410487      9.00599787   -2.90288154  -17.76937043    -70.63511983   31.39544273   77.23774986
    8    4.13210360   -7.34440250   -6.30347225     21.78420384  -20.77568285   38.86766265     -6.71911906    0.20785509   -4.93263718
    1    3.61419911   -8.18036530   -6.29166644      5.95451586   23.01956822  -15.81115668     62.72091633  -37.80482639  126.71420422
    1    3.88326272   -6.85487181   -7.06015386    -23.13023110    1.42888676  -22.89344757     35.86130945  102.86367787   41.94475861
    8   -9.03281063    3.09945793   -7.78236234    -13.77595879  -43.26084003  -36.87610914      0.91468065   19.67787861    1.76039705
    1   -9.89424219    3.47095441   -8.04027113     13.96656901    7.51221323    8.77698070    -23.32443555  -93.42808805 -130.77396980
    1   -8.67435561    3.67722934   -7.15758844      1.67887117   37.03621289   20.55160253     76.82581757  -62.31993896   50.77693191
    8   -8.40050756   -8.84920584   -5.56306595    -26.96610830    9.04161206  -28.27502533    -17.62497804   12.30649780   -7.27358813
    1   -8.39127799   -8.85850403   -6.52249186     33.37081950  -12.54274376   -6.15240451    124.18915567  -63.46312202   -5.79372721
    1   -9.25632944   -8.45769456   -5.49845250    -14.96907426    5.95645873   34.41141846     14.91397178   -5.21740556  125.30578899
    8   -5.44211301    2.64605799   -8.10402957     34.86385942  -55.67151778    5.60161598      0.52661175  -10.54598118    7.89480581
    1   -6.16457371    2.30170459   -7.64036102    -40.79672039   14.70556072   10.91674835    -27.77504310   60.43733820  -32.65326517
    1   -4.86865259    1.85607946   -7.96805143      8.87177558   37.22573037  -17.38806876    140.15501864   95.83285266  -74.15276445
    8    6.82592779    1.03785943    0.51042436     -6.16398829   45.01305971  -35.32210301     -3.29660890   -7.13364227   -4.61872141
    1    7.57109955    0.59149831    0.91754448    -25.79091342  -23.32894895   17.93945179     87.73170659   87.06521236  -44.30254275
    1    5.95204708    0.66220123    0.73782342     28.30541423  -18.35095264   19.40146883    -74.65479081   59.63084802 -114.71786277
    8    1.12701375    9.74725502    6.79565071      0.95104227    6.39411438   -7.30205025    -11.11508390  -21.68174010   -4.58558981
    1    1.30220782    8.79789735    6.74279382     -5.66250139    0.67291828    5.00041884     54.07358518    3.21166290 -132.15795493
    1    0.51777931    9.85195259    7.53257673      4.78259581   -8.40161743   -3.96801815    -10.70369765  127.02841874  -24.17635000
    8    0.75457592    5.89894944   -9.96393696     14.37247763   69.63504906  -88.94785037      2.34613189   -1.68326315   10.89651829
    1    1.50136513    5.40999962   -9.61014831    -36.35628122  -25.70578152   50.22393141     75.52382208   -3.82034313  -57.14591202
    1   -0.10534895    5.88650889   -9.54950759     17.91872756  -45.69748522   45.45161214    -81.47765592   73.37046527  -69.33821991
    8    2.57777259   -4.76631247    7.40643155      8.75071897   -2.37196108  -11.01163468      2.90513547    0.66688485    6.12404163
    1    1.82846945   -5.34316398    7.52012445     -6.59652461   -5.43763510   -2.84436252      7.16892683  -38.95009539 -138.98464137
    1    2.73261084   -4.41282022    8.26425525     -2.39083113    8.65194841   14.59678868     81.71922952   98.92004992  -53.86333675
    8    6.80655673    1.64050239   -8.20296904     33.70167375   55.25205463   13.56129589     -6.55981487   -8.19981592   -1.05695208
    1    7.15115668    0.95255018   -8.79813323    -39.68790033  -16.16544374   18.46631711    122.98271734   41.27037803  -21.84506089
    1    5.97641168    1.44521241   -7.73700507      6.81609602  -40.55186728  -33.55632751    -43.02506118  112.87701038   28.80408815
    8    3.44744421    0.38197284   -5.14662770      1.04734624   11.40660021    6.91618062      5.75407430   21.22415723   10.31206092
    1    2.90195143    1.16667770   -4.93781473      4.96062361   -5.67511699   -4.11620152   -124.86700728  -49.76817529  -18.50054387
    1    4.29734523    0.57512817   -4.73482027     -6.54219742   -1.69358512   -1.13554510     43.34293089 -116.22179996    3.61962708
    8    2.44077958    2.83015386    2.65769574     -0.26462244   -3.83383806   14.79891450     -7.06692590    0.71015182   11.95837603
    1    2.40327371    2.20719971    3.37821616      6.52328910   -4.60289198   -6.22495941    105.60816912  -81.06368975  -39.68081727
    1    1.71349477    3.40198793    2.90966952     -5.27846228   10.96837965  -16.89413569    -16.02260065   45.05907977 -123.90982316
    8   -6.92747138    9.54046903   -8.26134165    -44.93270182  -88.41922811   21.08903664      6.44020252    6.14298036  -14.21570288
    1   -6.48721493    9.09623949   -9.05091577      9.52027181   75.15949101   23.86617878    -51.50345820 -135.41521857   17.55665241
    1   -6.79601861   -9.52740233   -8.09631534     39.98161577   12.68734937  -44.38929836     14.53770119   32.44302899   69.64893600
    8   -5.56213385   -6.15882742    0.76692027    -43.59320835   97.50676224  -21.44472524      1.41842665   -9.22258492   -0.97990733
    1   -5.90889452   -6.71902358    1.49330209     60.38173659  -39.59547578  -35.77382573    -34.40981026   52.73493104   61.49922884
    1   -4.79486755   -6.37721489    0.18601628    -17.44938357  -58.69473517   56.43323559     10.37660712   82.22613453  -44.11529862
    8    2.04031437    2.88144863   -4.79738268      0.86596362   -8.26248782    4.04708008     -0.68516012    1.18874804    1.93308042
    1    2.16931989    3.78218560   -5.10067781      0.63114045   -0.54250809   -4.96361141    159.93623513  -19.55496211   -4.32060967
    1    1.12357162    2.85320270   -4.51372259      1.60851750    1.74635980   -0.41388620     13.50785105 -129.61786328   33.64785167
    8    9.54580072   -5.21337104    6.93160886     16.33733057   48.18165727   39.63226150      0.78844971    1.08523733   12.61089078
    1    9.73681204   -4.28707749    7.15407902     -4.22857636   -3.63490193  -43.59198109     15.77293173   21.91321871 -149.63266304
    1    9.55429376   -5.46374513    7.85690464    -12.18508169  -49.11093425    0.33904197    -54.94850544  -96.17814384  -41.13118468
    8    7.91951421    6.59132501   -5.17713324    -40.31204634    1.98126320  -33.14703626     -3.87257829    1.58403788    4.72914020
    1    6.98121638    6.49951012   -5.51952695     39.45701417   12.61447744    5.17282456     51.55233974   77.12158187 -168.77914571
    1    7.85800600    6.20136246   -4.32973992      3.69301711  -11.34170917   24.48221048     94.22812135    9.87830332  -16.41279667
    8    0.72226133    0.16402459    0.16235811      9.28303073    1.99690605   15.92683977      8.11590401  -11.73323487   -3.65555824
    1    0.47886594   -0.40110203   -0.54993890     -6.63783437   -7.85571690  -14.62926332    -70.97743506   76.88765746  -38.79181560
    1    1.43974882   -0.31338011    0.59328686     -1.24793797    7.14676108   -1.20551108     29.12594646  113.83656706  103.24325313
    8   -8.72165997    7.06166684    9.86349579     35.55818380  -19.19811983  -20.78724150     -5.73118917    1.80010626   12.37781065
    1   -9.67366765    6.95637567   -9.97179467     15.87814294   22.52112171   23.81988942    -47.68998308  -10.35274625 -113.90013957
    1   -8.29714881    7.66176898   -9.48868370    -41.06198220   -6.48959223   -1.30001806    124.61532559  -29.18920406  -50.81281463
    8    2.10585461    1.98399433    8.53545748     17.29869044  -41.97343912  -54.98610297    -12.49177925    6.95953405   -4.16847109
    1    1.58234116    1.68518708    7.72844497     21.01965122   -0.11975192   35.23413961    111.39347841 -140.30987682  -29.80106992
    1    1.58531919    2.62899303    8.89987480    -37.03215131   38.32338763   25.40670683     33.20725524    5.40630031   63.72722599
    8    4.14463911    3.38637226   -9.09866938     24.32544745   31.32590697  -25.82034281     -3.46287866  -14.20599946    3.02319883
    1    3.58435661    2.66763477   -8.85446751     -8.29591340  -16.80189899   -8.09098067    -15.26887208   15.90178365   95.01903963
    1    4.37424404    3.30336839    9.94429554    -15.26493081  -12.36291671   33.53475477     80.96993635  142.86774512    1.89728106
    8    1.72179263    7.32932790    0.62421591      5.71142861   -6.19050907  -18.52892133     -0.05122053   14.53683252   -3.55534332
    1    1.78560032    7.19995030   -0.33566480     -4.03255329   -0.33215376   13.98403692    -48.45182272 -126.71388212   12.79442381
    1    1.86287462    8.27743976    0.70543972     -2.13073351    9.24551582    4.85292212     20.97238596   -4.02993589  146.68117482
    8    9.73013105    9.44318095   -9.64865528     11.59537475   23.46659173  -27.30785388     -0.96785557    4.22052240    7.56950363
    1    9.10485770   -9.80772534   -9.74114354      5.67314893  -21.18031757    8.55799889     32.49445933   14.07237709 -138.00401078
    1    9.56453430    9.10773478   -8.78448426    -10.73877232   -1.12269641   14.39775313     36.57574587 -139.31662125  -19.47517278
    8    9.75174628    0.36058758   -5.17483730    -45.25072635   -1.13047993   15.24591735      5.62252588   -1.81151718   -8.44372500
    1    9.57614842   -0.03915388   -6.05964197     42.80137472   15.91489437   21.45089538   -151.17475299  -67.97006086   24.92391290
    1   -9.31811493    0.54457863   -4.98985400      3.25780452  -11.88119203  -37.66095562      1.02336789   18.03465211  100.49486936
    8   -9.04827001   -6.95750762   -8.30549034     -6.12925381   31.92137636   28.61366307      7.08079057    3.17809408   -4.34373659
    1   -9.10573463   -6.71191383   -9.22141659     -0.11799087   -9.69869940  -16.00659006    -40.02552966 -145.57968642  -47.43405362
    1   -8.88033963   -6.07080270   -7.89875865      2.05535350  -30.91434996   -9.26239040     18.43428028  -67.55832079  126.07075170
    8    3.84540715   -9.88058802   -8.08850700     -9.68244075  -25.66703637   -3.53293976     -1.11629217   -0.31020666  -12.04203205
    1    3.33471252    9.40757092   -8.49421458     -0.26753131    5.00714174   13.54670801    -36.84867262  -59.09437963  144.98962293
    1    3.94150835   -9.29407605   -8.82393465      6.08997822   24.03407632  -10.20505295     75.55674459   85.23334636   69.33150564
    8    0.05735734    0.14403554   -7.81325776      8.54327519    4.16210537   -7.97696155      6.61305085   -3.77071559    9.88615342
    1    0.92472889   -0.03194118   -8.19756779     -5.29277707   -1.36444719    5.40308583    -37.07548297   65.46019864 -129.43615990
    1   -0.01231269   -0.48753336   -7.09984780     -0.12339767   -2.26084591    3.35583696   -122.17777877   16.44694536   36.84879748
    8    4.48630078    9.34879684    0.97221782      1.83766215  -32.91040487   -2.96120627      9.06108869   -2.05952845   -2.15711038
    1    5.09200234    9.89542938    1.45057869     11.86127043   12.79437140    7.14493363    -76.40119535   97.26579910   16.80009564
    1    4.99160139    8.51393070    0.86335406    -13.81313938   22.80375518   -0.79028671   -110.49009182  -76.82257247  -71.68514584
    8   -5.08519850    6.80324100   -9.69742381     -3.39476222   32.22488476  -60.75042566     -1.07257895   -2.92591702    8.84624434
    1   -4.58277536    6.71917105   -8.89512239    -22.03335489  -28.21439094   22.45533415    111.78397608   31.87475950  -38.76954557
    1   -5.89993934    6.27005579   -9.72323846     21.96530368   -5.81316595   39.20551429    -46.89160129   65.41080247 -113.69195248
    8   -9.72862090    4.03248766    3.43164737    -10.67013225  -14.64053840   25.09154924      1.44248672    9.77571163   19.06211149
    1   -9.56354918    4.95277551    3.37705865      5.13323962   20.82725503   -8.59266324     56.50363971   -9.36098429  -84.89797263
    1    9.87579851    3.96027440    4.32718626      3.85637426   -6.66556844  -10.61294471    -24.11352035 -146.24729868  -15.15478268
    8   -8.41082522    7.60213966   -4.72706407     60.08049443 -100.65878629  -70.71512588     -0.75774588   -0.27727334    6.73364299
    1   -8.05109620    7.53245228   -3.81627351    -52.39160506   60.52206756   -1.22305759     81.58032721  -54.96430962  -32.26550526
    1   -9.06546278    8.23236201   -5.00552346     -5.68281416   37.64309820   70.18100376    -51.75655067  -51.54152575  -45.12850741
    8    3.15760610    8.68812871    8.94734139     -0.13160679   19.83695656    8.70129885      8.43403298  -11.34542100    6.83967880
    1    2.53739395    7.93946234    8.98559416     23.72136638   -6.69543450   -1.38051337   -105.67530758   51.38537009  -28.60035713
    1    4.06379788    8.37300682    9.14774298    -25.12252295  -17.05292507   -8.22720896     49.80030249  124.88564571   29.68576231
    8   -5.32725430    9.38785089    9.21306329    -26.21131102    4.80324755    7.53911457      3.46125517   -7.75184619    4.32049823
    1   -4.40754425    9.54931087    9.02362337      6.79314041   -9.36867450   -4.01014949      3.58061638  125.68256229   21.55946951
    1   -5.47664828    8.43605123    9.08776761     16.73788039    3.46536486    0.34705541   -147.78605806    2.58400571   24.46801761
    8   -9.92716006    5.84258101   -7.54087848     26.40758046    4.66625757   -1.57453245     -7.66080377    1.10645316   10.40848845
    1    9.16855581    5.92461057   -7.27824327    -16.65049900    6.85431696   12.69722756    -38.55644774  -83.32851110  -62.08721173
    1   -9.43394542    6.46045870   -6.97252826    -13.58686666   -9.22091635   -4.39614388    132.99987794    3.67456093  -92.70913607
    8    8.90129479   -6.66729699    9.40371819    -29.47307945  -30.08309361    8.57697127     -1.75538549   -9.29382916    4.24810671
    1    8.59971558   -7.03201495   -9.75965163     21.03995472   17.90757002   20.75195357    110.41419280   50.94751023   60.31163487
    1    8.26075580   -7.14845813    8.87431098      9.17497989   14.92267815  -27.53197357     55.13554670   53.03867802 -102.78057229
    8    2.27174754    6.99831134    4.80081449     10.28570240  -19.03710282  -23.69959998      2.89074826  -12.02454251   -5.54360143
    1    2.31954752    7.02369868    3.84309066     -8.83162238   17.15499158   -2.21743279    -68.77023871   98.33837024   -9.48243087
    1    2.71758846    6.15918031    4.94010883      8.99446141   -3.27094512   19.42804830    -17.61415606    0.75663535  153.56692857
    8    3.98497856    0.36232976    4.19430609    -47.83927556  -43.75227222   -8.50094515    -11.02269206    5.36643169    2.72976080
    1    3.39388496   -0.39812716    3.99432668     49.77948819   -4.79687240    5.90471693    165.07938168 -104.68756176  -15.93251325
    1    3.29696707    0.97533250    4.17537697      1.96893968   47.49239724    8.14817516     50.02197078   32.25189019   37.04965861
    8   -7.26190482    4.19812788    8.53378072     31.16507889  -36.92996311  -13.81997489    -10.43364075   10.49016194    7.34833072
    1   -8.17380913    4.39139500    8.38511365    -16.95652964   22.86707428   10.06204480    -22.94815380  -81.58991257  -61.66382337
    1   -6.87847175    4.87948023    9.08214157    -18.90431055   10.69940321    1.50587654    135.40228001  -81.23081245   14.20111604
    8   -4.60576971   -6.08833143    5.47765876     21.49862120   23.08138746  -16.18194718     -6.17657150    0.22136327  -13.43134890
    1   -4.26773237   -5.39479730    4.88076855      1.21844982  -11.85818623   18.45353667    136.96650165    6.15282323   79.72436276
    1   -5.42630028   -6.29150117    5.06926295    -26.80573656  -10.76362383   -0.95657416    -27.28459094  -64.03695828   82.85091891
    8    2.40007256    5.38495798    7.70779589      3.64864569  -65.61627540   31.07073801      0.88955320  -15.12946520  -10.77725700
    1    2.44614219    5.12271574    6.82452083      6.32258408   18.67264454  -49.02408176      9.52892046   92.17732177  -26.78893458
    1    2.47328895    4.47600858    8.08838574     -1.29677759   43.36561177   14.49408277    -18.63438365   59.15992854  178.68181685
    8   -5.09956450    7.47995440    2.96051836    -37.52107154  -64.41760162   26.47016600      5.64614996    9.59329366    0.58953415
    1   -4.46090902    7.80133521    2.34323325      3.66580646   46.53045402    8.31636775     11.59886435  -77.71954301  -80.72853366
    1   -5.55203262    8.14340715    3.52411166     34.67094126   17.33024247  -31.33292145    -76.20098805  -95.00920203  105.34509948
    8    0.75237212    3.14727515   -7.94898865     53.01026388   52.64851925  -51.62068058    -10.10375196   -7.51881983   -3.55979284
    1    0.77585936    2.40239386   -8.60518469    -35.81652035   -0.81122465   58.52678698     98.30308474   77.08990699 -114.24332172
    1    0.21186926    3.04293359   -7.17748006    -20.14693695  -52.13885649   -8.44129069     35.03773395   45.17744054   69.39608349
    8    3.35249512    4.10446752   -0.35662728      2.87174345   14.43444372    9.66537312      4.72382877    7.22918558   10.56870241
    1    3.49573983    5.05023783   -0.34153454     -2.10526234   -0.13218576  -10.71756075    -19.03793500    9.45738323 -131.87075213
    1    3.49813130    3.89198878    0.56218930     -2.45936263  -14.09190651    4.33984363      9.70715716 -147.45131704  -28.54724636
    8   -5.83178472   -9.73358726    0.99651111    -33.77124345  -66.42774444   37.06101147     11.83569404   -7.55702443   -3.24569014
    1   -5.14102208    9.93224104    0.49320770     40.41414353   13.45722347  -35.34362633      6.52148216   63.86752704   -8.38490341
    1   -6.14697953    9.37541946    1.33139241    -12.02857970   49.05416674   -0.44459196   -147.29822576   87.09620649   97.60568318
    8    8.73556196    8.63052972    2.90001709      1.26178128   31.07541120    6.31052022    -21.79721198   10.26553090    9.67085171
    1    7.96706427    8.09035340    2.98143582     -8.99645162  -19.42719805   -0.11221103     41.41535870  -86.61781677  -36.94047062
    1    8.38112042    9.49587905    3.17833692      8.84213359   -8.33871219   -2.24906781    133.86429096   62.12523284   15.93438617
    8   -7.58365757    2.22764718   -5.47274613     -6.36462860  -22.28575557   37.25401068     -5.66021236   10.54921029   -3.74806969
    1   -8.08075857    2.92069994   -4.98497895     16.69371341   -5.29908568  -28.19616297    -15.41352855  -70.30388707  166.44130935
    1   -7.31884225    2.56499046   -6.32359458     -9.78390240   23.93970411    0.12359680     18.14481974  -81.65565786  -63.56165732
    8    5.47958594    7.59787755   -6.65532954     68.17093086  -67.15553339    7.18614635    -12.30222797    9.30425522    3.49272169
    1    5.05491674    7.25406475   -7.46997849    -18.40754401   40.69960114   18.55812278     87.19104996  -71.13604442  -69.89171610
    1    5.07090848    8.34219766   -6.27425037    -44.87352336   28.85897407  -20.31915670     39.23333573   50.47973524   82.41247538
    8    0.09881381    3.51065128    4.47384228      7.00925102  -41.05754492   33.01157356      2.64472669    3.20360302  -17.80688541
    1   -0.42610320    3.35521523    3.68354535      3.23987597   22.56577075  -11.87979730   -135.85319845  -52.47962493   70.92487862
    1    0.58077821    4.31969756    4.36924420     -9.97912471   19.20724757  -20.19985576     26.70188688   -5.96442019  124.87802320
    8    5.27003271    2.35387126    6.47394058     13.74493124   60.13569327  -16.53677183     -1.49032172   -9.38581009   -2.93445958
    1    5.31742783    1.83276545    5.64364205    -15.28806519  -28.62118727   36.19119833     20.58907930  106.45498092  -99.66690398
    1    4.92346630    1.88170291    7.23628431     -1.94514122  -36.52425487  -24.40247441    -40.74309895   52.71176202   55.36204741
    8   -6.96359101    5.02067831    1.49046448     -6.81502928    9.35357878   -6.39511720     -7.11631297   -5.66957279   14.27686306
    1   -7.41143955    4.18088333    1.37640262     -1.00866829   -3.12201806    1.69412990    -36.02436283   28.87202197 -121.14899717
    1   -6.65227258    5.00074421    2.39362597      4.36225123   -1.31588804    5.37504090     79.33743616  115.25262811   -9.82988422
    8    0.86782297   -6.88733341    5.31316125     -2.90992027   22.25211289    5.72006955    -13.11280071    4.40289449   -8.35456568
    1    0.33581259   -7.43042199    4.76855648     -5.85290239  -25.73754710  -12.82221656     66.09754228  -80.42588279   15.24537849
    1    0.34390200   -6.08110639    5.32056959     11.50873037    3.14655847    6.94740224    114.99309199   75.85514995   76.36879581
    8    8.55590944    9.63673709   -5.34613390    -40.24274106   51.36845977   -0.25167110      7.40575499  -16.67737354   -2.35143479
    1    8.56506570    8.83740556   -4.78054768     40.36301299   -2.44491602  -38.72295565    -77.20879094   24.09062238   87.82439122
    1    9.27347185    9.77101799   -6.00619058     -1.54426112  -49.89454240   35.37259605    -35.60872749   83.59896860  -47.24850872
    8   -9.16601108   -9.54063130    0.72295334      1.53639593  -36.37524063   46.17979284      4.54023588  -17.18186586    6.54878110
    1   -9.19889909    9.89152047    1.52084972    -30.72032735   19.03550369  -11.10035350   -148.31561138   38.26561311   27.94617584
    1   -8.26813847   -9.76218430    0.54127264     22.66238131   18.11161313  -34.21020193      2.43674829   86.95889210  -66.26077541
    8   -5.66219674   -9.41458911    4.80736306      8.25168406   -1.85955840   -5.33655289      5.31518020    5.97375287  -10.48899643
    1   -5.96131210   -8.91565107    4.05433071     -9.85518885    2.49786862   -4.32749470   -115.25525534  -24.13943899   19.97532595
    1   -4.71911304   -9.24852504    4.80101988      0.96186436   -2.20093909    7.77927234     16.08037620  -56.85195016  122.63592579
    8    6.26250305    5.63915398    0.44187834      2.52249729   20.24068206   13.70282910      0.08697310    9.23231395   -9.26091118
    1    6.54333164    6.55189418    0.61878311      2.84565962  -13.69101832    1.30142012     54.33198441  -31.78627016  125.56198901
    1    5.95338839    5.68719119   -0.44857625     -3.05732948   -6.34354279  -15.55418218    -51.82813075 -106.08020304   10.64366525
    8   -6.31390012    1.17275236    9.03278811     46.46178652  -45.31422069  -15.89895119     -7.82260670   10.37479897    1.40036201
    1   -6.87343276    1.58183803    8.38679117    -22.59428150   25.02522562   23.82357053     56.49750083  -45.04281919 -110.47727254
    1   -6.55690733    1.39014515    9.92678176    -23.48679484   25.64026022   -3.92080340     90.10936003  -30.03911377   52.67491230
    8   -6.31742212    0.79300720    5.85346690     -4.46593678  -19.24588913  -25.40625183     -3.92658717   10.40222285    8.93105307
    1   -5.49493143    1.24073765    5.65582456      0.72850298    5.26453837    8.25222162     33.24566481  -92.98540964  -97.83668788
    1   -6.70969655    1.25673023    6.57295189      3.61321974   12.93209564   12.82904991   -110.82380246  -72.37833525   -1.30298775
    8    3.12680360   -7.72844817    9.94400022     52.95841226    3.44431518   76.44124345      2.76967555   -5.76918979    3.98651809
    1    3.49955567   -7.11785387    9.26523141    -55.23449528  -36.34270375  -20.90032258     77.86007634   49.40697815   77.72305293
    1    2.31910570   -8.23354476    9.76785177      5.08620622   28.83781802  -56.89035043    -13.45932770  -42.28219363   99.69152353
    8    0.84230923   -6.36217362   -6.32930155     20.92482874   -9.94956592    2.93330320     -3.87668503    4.59349545  -10.85608327
    1    1.17412508   -6.45499608   -7.22872955     -8.77621101    4.21641729    4.39721783    131.43748494  -64.79596192   42.66140712
    1   -0.02775814   -6.00287595   -6.40243303    -12.88406969    5.75911055   -7.82301619    -33.40197008  -25.83045744  114.67420665
    8    6.55593547   -9.21365874    3.36309485    -31.02832136  -10.29099520   11.27528302     -8.95638320    2.78578432    4.16708863
    1    5.67138842   -9.30448971    3.79194383     19.42961992   -4.18037238   -6.25219546     43.50674181 -126.55999931   77.86252924
    1    6.58668124   -8.27993710    3.20492435      9.30684686   12.83794988   -6.21016776    127.13110209  -12.49841527  -38.20616547
    8    1.54103016    7.23916694   -7.51566018      6.73922040    8.13089067   18.06199830     -7.84420310  -10.57434085   -7.08101516
    1    1.08427608    7.03491061   -8.32006441     -5.74206388   -4.92037744  -15.69959611    110.31558628   39.55882462  -90.50512094
    1    0.84109102    7.29017937   -6.85650975      4.04228696   -0.00603492   -3.44537783     84.89464834   55.88595468   99.43605391
    8   -0.18415623    7.73437840    3.45039929     28.17256706   35.22651315  -18.70181649      5.57158280    4.75116376    0.64346563
    1    0.31242004    8.22889485    4.08979647     -9.64478470  -12.92769073   36.98424414    -88.53772782  -59.95864776   90.89664361
    1    0.20273001    8.17736784    2.69105040    -20.21167279  -21.28264961  -21.09220905    -72.65697910  -94.64427624  -80.49133481
    8    9.17948010    3.19035216    0.16718790     38.23553356  -72.03786624  110.56530818     -2.69680404    4.53536558   -7.84852956