 BEGIN_INFO
   #
   # This is a XCRYSDEN-Structure-File
   #
   # aimed for Visualization of geometry
   #
   # Launch as: xcrysden --xsf HICOLM.XSF
   #
   #
 END_INFO
 # estrutura final
CRYSTAL
PRIMVEC
      20.00000000       0.00000000       0.00000000
       0.00000000      20.00000000       0.00000000
       0.00000000       0.00000000      20.00000000
PRIMCOORD
  306    1
    6    7.50051283    7.43132965    7.57372702    -41.70774842    7.25828626   10.23507582     -2.88303410   -1.78597420    0.13509799
    6    8.86665131    7.42204061    7.63671817     38.75995031    6.95081101    9.79001716      2.90649192   -0.96353307    2.26339803
    1    6.92833284    6.78361706    8.25817829      6.97900440    7.71753556  -12.75835520      2.87941770   -9.09482433    6.11180127
    1    6.99815280    8.33185822    7.19951414      3.90448448  -12.82581378   -0.04393277      5.52958941   18.66692782  -17.99707774
    1    9.43669384    8.28210919    7.24525281     -7.69983074  -15.17735373    4.49337201    -11.95040016   -1.17746231  -30.92780462
    1    9.33747465    6.77418111    8.38169046     -4.03539854    3.78536166  -15.58541466    -12.12803475  -19.96646163   12.95595293
    8    4.59408077    7.08727936   -9.27754594    114.53371344   10.30601296  -62.75018595      0.77474562    0.58414509   -1.97117303
    1    3.85471120    7.74351701   -9.21183945    -21.90996110  -81.65390213   56.66904101    -71.23357755  -17.46392351   14.59365952
    1    4.71873651    6.18473035   -8.82051115    -92.23556349   58.89483501    9.70367287     17.58811327    4.43750769  -38.75951942
    8   -6.14064813   -6.28217326    8.67188865     -1.31790134   86.42422601  102.96689330     -2.67952936   -1.17515321   -2.36219496
    1   -6.93781867   -6.89568050    8.68549112     68.77222188  -12.41061456  -70.58019975    -46.15429880   18.91407530   89.96644570
    1   -5.42659328   -6.19101629    8.00004919    -59.56539093  -69.20341881  -32.11673664     47.78143127   50.15444726   34.32194085
    8    7.35060875   -7.52510915   -6.96255249     87.76408543  -40.27006390 -101.99644117     -3.39943470    3.37797345    2.90688356
    1    6.38634363   -7.40505095   -7.13408170     17.86470071   10.18125984   94.14326115    -37.09471572  -50.32624443  -21.12823464
    1    7.84330431   -7.47231776   -6.08846118   -103.00566041   19.71849354   -2.09771690     74.14224919  -40.33565172  -55.83144596
    8    3.61222516   -8.73928394    4.57280781     84.65257671  -37.72362285  -63.64441658     -0.81219749    2.32945667    3.23419566
    1    3.25527969   -9.59259369    5.00745579    -35.82716359  102.79583648   14.35138683     66.79870549  -65.35501482  -69.39990747
    1    3.28216782   -7.80614335    4.69990530    -48.47972731  -66.62339709   50.60698746     23.99965524   39.73100782  -30.38706626
    8    7.26543107    9.73690022   -8.62897097    129.20782437   92.35162973  -52.75401801     -2.43455006  -15.12227638    0.86389829
    1    6.59525449    9.24858656   -9.09776310    -50.16030092  -30.55753458   90.26214683      9.12341341   20.27595834  -67.57464536
    1    7.43330125    9.89690037   -7.64311744    -91.93716229  -60.14556186  -31.55386969     48.00852131   71.33715376   -6.37498346
    8    8.59272302   -7.35287964    0.96341290    -81.28342646   48.33643836  114.48523690      7.10711321   -4.01457882   -4.09333949
    1    8.59739279   -6.76703089    0.14004373     61.71366959 -101.13597318   -1.21160596     19.87852358  -19.48858204  -33.10848813
    1    9.02377744   -8.24887887    1.18479261     20.69678013   54.11599696 -112.17809072    -65.97681045    8.74596888   40.22089318
    8    0.26369004    6.72566461    6.51155929   -143.38360811   53.92691796   14.83495727      5.66886277   -0.02677000    2.63674496
    1    0.71434730    6.81865090    5.62555739     65.98021991  -47.18288760   67.64162595    -25.56315671   61.40367195  -24.12581139
    1    0.58130153    6.32234473    7.37122969     72.80666263   -5.92122467  -75.85327002      7.30159416   82.46962076   62.06443372
    8    7.83629275    1.11392655    3.99718932    -96.36013541 -104.85789199   28.07116183      6.53551337    2.91190426    1.31456799
    1    7.65511838    2.07302354    3.98892067     97.18419642   -2.53976522  -25.73213450    -25.71597640   28.56561612  -36.39473837
    1    8.69147725    0.59275454    3.81620324     -0.28625347  111.83936446   -0.56396471    -40.65789538  -81.72783250   42.30910870
    8    8.85782347    0.05647415    9.66351126     17.64925232   82.11029110  115.71223575      1.71527620   -6.85343124    2.01508972
    1    9.63713994    0.10288733    9.02997342    -83.54563089  -67.90810048  -20.36486294     48.04647216   43.10986028   42.67018095
    1    8.03868858   -0.50474590    9.65033036     62.19935467  -19.67824318  -85.28260397    -22.81444426   17.19533741   10.05355823
    8    4.12363926   -7.34400616   -6.30815726    122.12660992   42.70629684   85.37000513     -0.87966064    1.02210087    0.60067192
    1    3.71805187   -8.21922725   -6.09918305    -49.41675433   35.77926879  -78.67450376     34.95125231   -0.38398375   62.38339947
    1    3.90308958   -6.68733144   -7.00595365    -68.87770442  -73.50248689   -6.76139601    -24.26895615   57.54286740   18.30814019
    8   -9.03043090    3.13138567   -7.78270256     55.41471627 -119.39238610  -59.39562989      2.45288258   12.84237788   -2.39673101
    1   -9.90914443    3.32804727   -8.24882300     40.37321940   66.35785323   79.50752780     13.22049426  -44.61010129  -73.45210110
    1   -8.56489837    3.61191680   -7.05088076    -92.97483034   51.24487766  -26.32457628     18.71295551   -3.48439398   51.39850482
    8   -8.43235455   -8.82655029   -5.57667033    103.42263995  -39.55831737   60.77646427    -14.09738494   10.82051654   -5.87434770
    1   -8.16156866   -8.97505399   -6.53268566    -81.53644879   34.48890194   17.60023434     93.35905500  -49.17438950    0.12103268
    1   -9.25785962   -8.45650069   -5.26434625    -28.94901076    7.22218933  -77.70075054    -19.35231453    6.72407106   97.56896180
    8   -5.43769072    2.62605747   -8.09084320     53.16930402   97.68561030  -74.26250565      4.34323498   -8.47164800    4.91480149
    1   -6.24844291    2.39541998   -7.67930643     17.70383305  -72.35804592   28.77068423    -48.34728083   20.22650758   -4.58482674
    1   -4.62149031    2.05473054   -8.10541130    -68.12346305  -28.01237505   41.30708998    103.38316299   99.27922853  -58.01858180
    8    6.81955144    1.03033456    0.49700775     10.47458206  139.44183670  -99.35510896     -3.17711928    0.43720013  -10.25051257
    1    7.68214903    0.70874988    0.86536158    -84.17133505  -69.56500345   37.91135895     16.80734881   26.57182090   -6.47416516
    1    5.86384572    0.73158309    0.56259707     71.72789903  -67.38092563   64.27474743     -8.92785667    3.28272006  -59.91829371
    8    1.10745259    9.70953225    6.78400170     61.15798378  116.43533106  -89.88101055     -8.62829092  -16.46398332   -8.66935311
    1    1.37357649    8.79615188    6.53018343    -64.61802173  -14.52598233   80.79648635      8.87028283   -8.05450025  -75.43133921
    1    0.50303977   -9.95702978    7.48709568      3.13894016 -103.37719260    5.13707070     -5.03327304   54.02921373  -21.72283735
    8    0.76015084    5.90167200   -9.95060750     13.17990380   92.17857320 -104.62888343      3.46894612    4.81909314    2.89921661
    1    1.57133281    5.37617749   -9.65159614   -101.88078427  -15.36895475   61.84548952    -15.58776689  -29.42047925   15.89276591
    1   -0.20808973    5.95835368   -9.62382566     86.43345792  -75.32162918   48.93900620    -11.98525861   -4.09748663   -8.07011397
    8    2.58577339   -4.76475440    7.41396507     76.71131899    9.43509480 -119.52733745      6.33534297    1.11120039    0.40118538
    1    1.83795791   -5.40894542    7.29286938      4.12541907   37.56894072   90.70531514      5.09363561  -21.20926965  -80.36629836
    1    2.85280250   -4.23662875    8.19029407    -81.83103982  -46.85235116   29.44554884     28.25267844   74.54115793  -20.78012020
    8    6.79795618    1.63117673   -8.20370935     83.10472771  129.70394840   26.59716886     -1.82895122   -0.64172841    0.44142398
    1    7.30871554    1.00322273   -8.80575541   -103.92138365  -35.52230917   39.15376699     29.11219360    8.10954971   18.12049390
    1    5.91071540    1.58702951   -7.73805617     22.69815945  -94.79302448  -66.83467436    -22.50421291   24.86069840  -36.61855876
    8    3.45733010    0.42048710   -5.12857883    -33.78127710  -82.76163502  -80.58194580      4.15832114   17.95266287    7.49600896
    1    2.70723386    1.07512402   -4.95793050     87.97529002   14.47310494   46.99136517    -62.35214685  -42.19552873    7.70996131
    1    4.35503524    0.38551598   -4.71610538    -50.44098032   71.43264626   33.88525209      8.24687519  -67.74884184   23.06440376
    8    2.42982754    2.83114843    2.67889403     93.84790923    6.26393188  -80.20496111     -3.21782994    0.45032913    9.06062279
    1    2.57681748    2.07478540    3.30374800    -82.13487324   55.23501280   11.23271741     58.35887680  -45.49430517  -34.93286915
    1    1.67093320    3.47364971    2.68854364    -12.83508231  -61.03479638   61.53162008    -30.04226505   15.51457060  -92.06597286
    8   -6.91999668    9.54637887   -8.28492755    -97.52434218  -41.83042716   90.90553217      0.72619786    0.66624750   -9.62012777
    1   -6.55879220    8.94616026   -8.99682662     50.41905664  102.32060262    0.24839375    -15.22615333  -16.42466299   34.43975492
    1   -6.71303664   -9.48145233   -8.03791803     52.61567902  -59.59045622  -86.90736733     74.97318860    0.80014638  -17.07808107
    8   -5.56409073   -6.16825606    0.76330552    -92.22483919  116.03659629  -26.41832381     -4.09848697   -0.43433984   -2.87470779
    1   -5.88737836   -6.66793289    1.56126310     86.64270444  -41.51997895  -43.15139621     62.32961074    0.50721042    8.25175153
    1   -4.78884500   -6.30109937    0.17804208      5.18349014  -74.87832130   68.81094446      0.60432779   -5.63531726   38.28774779
    8    2.04190574    2.88025234   -4.79358479    103.04277738 -108.64401298   -8.80144924      3.65141999   -3.70678967    1.88168538
    1    2.43256699    3.74835867   -5.10259010    -99.21427064    4.10385949   25.95360392     95.84313091  -15.14010805    8.58747950
    1    1.14721953    2.65066418   -4.45938100     -4.14093289  100.65025255  -18.76092917     10.15137387  -62.74326956   19.61975597
    8    9.54779598   -5.21000913    6.95426693     -8.34196210  -44.16477576 -114.80881901      0.98936415    1.26931887    9.17399801
    1    9.76343873   -4.25494775    6.86574212     -4.92906725  -19.99750416   75.55784768     11.99570867    8.43528014 -128.53939409
    1    9.44515779   -5.66159407    7.80110978     13.65264383   63.28820335   39.65164023    -54.24463717  -88.57112943   -9.40926011
    8    7.91267193    6.59678266   -5.17324793     94.96971794   84.85997591 -106.41168461     -1.58278691    5.19518417   -1.60011314
    1    7.10832328    6.63931283   -5.79520515     -6.62714039  -42.57435256   94.29302731     72.39058265   58.27745996 -102.11578521
    1    8.00106843    6.19256545   -4.32835489    -90.48984708  -38.88945790   11.89173020     36.77817029  -24.72278693   15.42785206
    8    0.73682643    0.14541194    0.15771582    -53.28172339  125.40592277   53.98821282      6.36491752   -6.21596343   -0.72651192
    1    0.36662528   -0.29045031   -0.62830792     69.86856594  -62.17226220   22.63748135    -31.25801789   28.20696942  -35.78299697
    1    1.48812920   -0.11883601    0.75743376    -15.33473306  -62.30072275  -77.15861296     18.62612388   76.14159314   53.43723366
    8   -8.72923754    7.06156141    9.88294737     60.35480858 -101.23539058 -103.81076650     -1.90598106   -2.95660257    6.95456080
    1   -9.73099069    6.98479146    9.86278001     45.93508303   70.87925549   72.76128461     -6.20173137   49.88321127  -49.56897106
    1   -8.13496633    7.61143559   -9.56875551    -96.99900297   29.32335356   34.13190201     34.11619482  -16.29919409  -25.99752486
    8    2.08650770    1.99345528    8.52519195    124.50934971  -40.59416972   19.37285596     -6.43231145    2.98558934   -5.63844831
    1    1.78472385    1.44730151    7.71804233    -62.29767439   63.74704772   45.82072111     83.92468876  -96.12644860   21.01956943
    1    1.58802723    2.66659219    9.01688133    -63.41174769  -24.60780659  -62.59233649    -35.56702786   21.10477349   41.04593377
    8    4.14081172    3.36412274   -9.09218131     54.80235147  113.69717548   80.17115165     -0.16367620   -8.07400230    5.12041428
    1    3.55203249    2.67257878   -8.72013014      9.42245280  -22.73462565  -95.08441388    -14.99087781  -11.82095005   28.24735322
    1    4.48905329    3.52693116    9.98287010    -62.75935913  -88.91620534   14.41655912     29.77061642   76.00613990   34.74089982
    8    1.72134243    7.35396064    0.61935561    -22.24717936  -95.08779508  107.31859338     -0.77620786   10.16667358    0.05922591
    1    1.69707226    7.00070253   -0.30171540     18.30183062   97.94961197   -3.72297475    -39.79468499  -62.31165037   19.23764860
    1    1.90291228    8.27889486    0.94497764      0.62637530   -1.88363324 -103.83880503     21.50639901    3.10404485   82.48654323
    8    9.73168994    9.45127973   -9.63753673    112.08557131  -36.47670015  -55.24528842      3.88349283    3.49502656    3.74637473
    1    9.15726372   -9.81232566   -9.95893717    -38.83997475  -39.30446562   80.41157612     13.37327996  -22.52801808  -75.78104613
    1    9.59808084    8.87417691   -8.81968413    -65.07514678   77.30820426  -30.14256349    -12.36459026  -89.51715025  -26.67856097
    8    9.75694705    0.35801139   -5.18804139   -117.04428911   45.96349211   74.47934452     -1.08514574   -0.29136957   -4.65207057
    1    9.37493511   -0.14716869   -5.98476029    118.75693134   13.58431474   21.19424837    -44.31534296  -45.63672139   53.64051041
    1   -9.31485365    0.54621859   -4.87273584     -1.46196833  -57.78885024  -96.74095937      1.36314894  -25.64923846   10.35348925
    8   -9.03568730   -6.95353574   -8.31081418    -27.42729179 -141.37759893   46.93129523      5.83673611   -1.22285391   -1.02817170
    1   -9.17318069   -6.95840600   -9.30660915     24.03516468   90.69106499   48.16959302    -25.76810511  -92.60794945  -28.59682634
    1   -8.84511709   -6.20576010   -7.70723450     -2.82011460   45.84701888  -92.57917226     17.49257867  -58.26975695   57.96201233
    8    3.84418269   -9.88243065   -8.10783616     59.02695537   -0.71457041  128.74358893      0.70064902   -1.29639358   -6.54733129
    1    3.26474729    9.32306912   -8.24198172      0.57974044   62.01693117  -78.87602425    -36.23271457  -17.97685169  100.75953490
    1    4.06628200   -9.13691252   -8.72425730    -64.10656285  -60.26356334  -47.88394063     41.06790836   62.36691334   27.69078639
    8    0.06812491    0.13940063   -7.79543039    -71.41623827   93.18731252  -16.47639869      3.65773395    0.03719510    8.69788644
    1    0.84865276    0.06121848   -8.40930965     -9.26383147  -72.55882477   69.18851390    -43.54953864   17.85362202  -79.58054159
    1   -0.20821460   -0.46574558   -7.04741245     81.29971800  -22.40727563  -51.64501311    -66.66106047    2.41032959    6.87430983
    8    4.50043456    9.34366248    0.96690633   -117.99458947   27.33391088  -35.93439490      4.24125675   -2.55029549   -3.82266730
    1    4.97840848   -9.94417619    1.48410049     50.60082670  -86.06276825  -11.43312237    -35.02909792   50.78177459   14.45991462
    1    4.79724820    8.41361634    0.74818630     65.09080081   58.46815966   51.13696180    -77.30243334  -21.10327987  -38.54653309
    8   -5.08614638    6.80212003   -9.68681800     47.15312328  103.74911178 -110.01954229      0.72540466    2.65616464    1.66110650
    1   -4.42450614    6.72816753   -8.94320616    -89.23110254  -66.39001447   14.07977790     40.42825423  -30.09849846  -13.52415228
    1   -5.95699424    6.37294610   -9.86509015     36.22294693  -41.54821856   97.46883323     -9.96978169   35.23809525  -23.31286467
    8   -9.72583786    4.04736911    3.46674478     22.21563736 -102.60162170  -88.92803157      1.89222330    4.71469305   16.28203318
    1   -9.46545084    4.95915258    3.24293599    -35.41175013    9.07109892   81.38818918     38.12238731   13.54755439  -37.54488655
    1    9.83746121    3.71722339    4.29593989     12.59492866   95.14092190   10.65125634    -14.28437857  -88.00887444  -13.36139085
    8   -8.40794190    7.59401272   -4.72126553     38.81808020  -87.38915208 -125.02616210      3.49964622   -8.05557659   -1.35492043
    1   -7.96467383    7.50646693   -3.86568640    -61.57353318   68.19825939   27.73043056      7.18078414   29.16682492  -13.62620551
    1   -9.16229563    8.17311317   -4.99392680     23.09401483   16.67232887   95.33472733    -43.80368386  -14.95565583   62.44220515
    8    3.17188922    8.67093409    8.95993427    -62.34389535  129.53807083  -34.95306042      5.73561280   -5.29609533    5.80378229
    1    2.40056019    8.01861316    8.94005885    101.15570529  -36.03742070   25.35472443    -21.97594125   25.80224725  -13.69514682
    1    4.12046454    8.55630550    9.20022545    -41.51568690  -94.56406924    6.46109888      6.32473954   51.67317771   28.29493720
    8   -5.32446434    9.37591956    9.22273928    -91.87495572   97.05968535   42.74670486     -1.35868763   -3.59022924    6.26500826
    1   -4.40304264    9.73656774    9.05456689    -17.89396071 -103.62739939  -18.18204448     -4.07003067   51.53390797    8.05845907
    1   -5.69750195    8.44844558    9.12413033    109.31036067    9.76753678  -25.02274904    -65.01569122   11.86879642    8.56590300
    8   -9.93841251    5.84304668   -7.52352444     68.22724202  -73.08056691  -81.52179521     -3.60246364   -1.59592001    6.77528686
    1    9.09357990    5.80144767   -7.35875310     32.80868901   73.08349429   58.72216606    -29.92248923  -32.42661909  -13.09745014
    1   -9.23616734    6.46195136   -7.14092194   -104.12873253    5.63247021   27.63521268     55.90935590    0.72911973  -77.40370017
    8    8.89887823   -6.68456024    9.41146203     84.21028130   70.97884214  -26.56692372      0.66425286   -7.52037141    3.42464068
    1    8.80293826   -6.93772292   -9.64143436    -55.31997504  -38.04770274  -37.70930043     87.22157544   36.63744247   51.75522711
    1    8.35843662   -7.05034067    8.68257764    -30.53061222  -34.43593821   65.56715552     39.27470370   39.86934428  -79.40455492
    8    2.27657614    6.97650131    4.79113494    -39.51499102   70.34955016   78.52156422      1.54642251   -9.71460938   -3.30550600
    1    2.19944568    7.19037337    3.82772680     41.46442190  -79.94945157   11.29729390    -46.97635793   56.76802699   -3.82196296
    1    2.69523298    6.15971088    5.20712913      7.21596731    9.54458476 -100.57616459     -6.30601771    2.61403587  102.06872584
    8    3.96538998    0.36939282    4.19944187    128.43008709  -33.95100516   12.54405409     -7.27149708    2.15604125    2.92079232
    1    3.72467252   -0.57821201    3.96905048    -52.14203881   64.46806066    4.84529438    161.21237001  -70.05366694  -10.76801301
    1    3.35738680    1.06671802    4.24865041    -74.14714905  -30.53934848  -10.70808357     -2.13194105   47.83238037   35.94933949
    8   -7.27796540    4.21241150    8.54522230     79.57674849 -132.91109076  -66.96719621     -5.79311414    3.27674736    3.97565538
    1   -8.22684010    4.29285291    8.30245248     16.36314590   86.57678424   64.75151171    -25.79663592   -8.90278970  -13.93949172
    1   -6.67655936    4.75420613    9.11251580    -99.15740119   42.48366520    0.06653190     60.04834914  -43.84071264   17.23961141
    8   -4.61423115   -6.08796145    5.45442596     72.23398487  -49.97549217  110.46461262     -2.05107678   -0.75836007   -9.31728464
    1   -4.04174891   -5.39856993    5.02752249    -85.15405661  -12.71879852  -44.15553600     82.45016079  -10.32449712   61.48928788
    1   -5.49977944   -6.39676651    5.19639656     10.18286619   63.17550112  -64.74991125    -42.19375864  -31.40104532   37.60827701
    8    2.40162311    5.35530438    7.69179412    -14.88820256   91.57666684   91.60670407      0.50341026  -13.96633846   -5.22401110
    1    2.47439626    5.27457427    6.73362389     12.65220700  -88.22038305   15.56797578     21.33972832   45.51376167  -55.34700842
    1    2.43909161    4.62108349    8.39441702      9.52876333   -8.17944201 -107.09580854    -15.04091986   82.59060663  117.40469350
    8   -5.09171539    7.49082284    2.96364171    -31.16481210 -155.27367074   19.80003531      2.66731525    0.66237412    2.60166011
    1   -4.45488301    7.73166282    2.22287870    -44.65795431   93.49183510   65.76802574    -15.20220819   14.03208664  -33.64019253
    1   -5.63418478    8.00096869    3.66261819     76.29217763   60.94210445  -83.99897576     -1.42534106  -45.66535852   28.99632996
    8    0.73780531    3.13955303   -7.95916914     63.65134331  148.52686025  -25.22026517     -5.04183014    0.63727149   -6.77317129
    1    0.90379006    2.52926278   -8.73487294    -65.06620067  -49.90128218   92.53286575     29.93051281   46.05242888  -14.71772853
    1    0.26112262    3.04448258   -7.08112258      0.35669335  -97.71663645  -68.84780115     20.86928860  -52.72383887   19.25697496
    8    3.36062985    4.11665603   -0.33895114    -42.66050397  -84.43871097  -99.51381995      3.22803893    4.29195707    6.58136308
    1    3.46640355    5.06548525   -0.56062459     24.23000342   -9.97651879   93.59928383     -6.40888717    4.49319982  -76.73388967
    1    3.52149887    3.63969319    0.51785927     16.53231255   95.64288478    7.81134804     18.57238541  -94.85423627  -17.36953350
    8   -5.81366239   -9.74878327    0.99406690    -85.23237258   88.61844345   61.69054933      6.49796159   -6.40646029    1.00102856
    1   -5.08724233   -9.97249265    0.44501935      3.76984092  -80.24792740    0.60608001     42.47082563   17.09377226  -34.87345088
    1   -6.40424243    9.57603966    1.49159127     77.42917403  -12.13527276  -61.71714559   -104.20042844  110.93187252   57.87587465
    8    8.69775384    8.65093035    2.91758088    127.50066644  -26.50370833  -47.30121967    -16.23849638   10.38313307    8.06283950
    1    8.01896456    7.93994381    2.92442582    -39.22205442   74.09898254   35.22498440      7.01161755  -52.08514413  -15.70582094
    1    8.60553205    9.58953585    3.21369311    -86.09609598  -45.73501820   16.08572650     82.24161257   28.47370851   24.77413805
    8   -7.59434098    2.24379777   -5.47614517     19.37410410 -112.95063760   69.86265735     -5.22050889    5.24790030    0.60285070
    1   -8.07886918    2.79300143   -4.74359119     35.23094802   30.37078694 -120.69994647     21.27365863  -56.56875251   67.63262886
    1   -7.31727308    2.46203736   -6.41708536    -55.47928830   79.41228426   61.47435102    -25.70296002  -15.18507992  -21.82613642
    8    5.46159879    7.61055683   -6.64741690     74.22120658  -56.01771459   45.46845985     -6.49722194    4.14540540    5.28613724
    1    5.19070305    7.19681215   -7.55863717    -38.82609234  101.42465278   58.62470061     51.08274309   23.51580239  -14.66009265
    1    5.09547593    8.44305567   -6.17651248    -29.21220419  -42.84825779 -101.43522969    -10.03654532   40.38059524    3.41377895
    8    0.10412794    3.51109478    4.44414041     10.02871330 -121.31569763   64.48406900      2.97912476   -3.78451951  -12.95270141
    1   -0.66087806    3.31454091    3.80522256     52.65156776   94.95451891    6.24460883   -100.26220503   24.68955658   60.52586630
    1    0.60379555    4.33932435    4.55622861    -62.09539884   26.50609268  -66.13610946    -13.34613742   28.18723668   61.98941010
    8    5.26902228    2.34189931    6.46776685     45.66236039  103.34881438    7.96455199      0.83911316   -2.63063986   -3.23006189
    1    5.32512273    1.98771923    5.51840712    -46.23681467  -57.75631147   79.29672770    -18.83610742   50.23925912  -22.69621480
    1    4.84501147    1.92995957    7.28205695     -1.03128673  -51.67092121  -89.39460951    -41.27725108   -5.06164638  -20.64345546
    8   -6.97709308    5.01351477    1.51470794      8.48505155  116.19404443  -89.32407161     -6.84109019   -0.48937376   10.09087234
    1   -7.46950169    4.22332796    1.18768030     32.18633226  -21.20129350   93.48362061    -18.09638862   12.06477139  -58.15122552
    1   -6.51483160    5.18038027    2.38037510    -40.35680701  -91.43503104   -4.00782200     55.64249949   54.89018142   -6.10162843
    8    0.84630153   -6.87824077    5.29957355    123.81054409  -17.15858349   71.21905796     -7.84412438    4.63014648   -5.06060197
    1    0.42777099   -7.58052725    4.77911703    -61.06646829   63.27576620  -14.06235866     19.21980536  -58.92356816   -4.37019319
    1    0.54446636   -5.95066654    5.44744570    -61.37989739  -45.30769243  -57.23544437     80.60608018   51.01229369   43.69666546
    8    8.56457619    9.61044816   -5.35021051   -129.49502015  105.73190985   15.19322347      0.54080139  -10.19811707   -1.72011009
    1    8.48992572    8.87717347   -4.67439246     90.52183607  -12.17549118  -67.44838759      8.56032538   15.72665510   17.59436307
    1    9.21933278    9.84889852   -6.04608947     39.52314676  -92.64261568   47.60682318    -12.78999218  -10.52655148    7.87717455
    8   -9.15988562   -9.57352354    0.73677506    -87.97721390   55.56795060  -44.98251984      0.74925578  -16.12838609    6.78245216
    1   -9.47253778    9.97199698    1.55708111     80.28428119  -13.61748892  -16.87372427   -116.08650012   39.47303209    8.83479063
    1   -8.23900801   -9.60082150    0.41191597      3.45838900  -41.18766125   62.41904105     24.09722437   70.25062790  -49.83856665
    8   -5.65355307   -9.40556920    4.78942003    -65.34696616  -86.32872181   76.49398131      2.81407917    2.41312502   -7.28178065
    1   -6.15269469   -8.94705001    4.08250097     84.90275973   29.75115379   -8.02558133    -66.21311461   -3.32522249    8.86048773
    1   -4.69405405   -9.33557877    5.01002116    -20.60195565   55.47205433  -70.16049341      5.74417815  -22.79827744   80.70976485
    8    6.26313436    5.65512129    0.42771316      9.31773179  -98.71718128   93.81919478      0.66457801    5.99993825   -4.57375504
    1    6.63661776    6.48568854    0.82036175    -30.40439446   13.11194460  -89.47076331     36.67930871  -32.26405182   67.39823558
    1    5.85990162    5.51686179   -0.44666854     22.81415970   86.00344725   -5.11641051    -40.94111385  -53.88276494   -6.44101805
    8   -6.32355210    1.18753713    9.03369991     98.62607342 -101.09859184  -33.56676688     -1.64736733    4.42430207   -0.67217517
    1   -6.79996901    1.53503326    8.23579152    -32.78122258   46.80795546   95.94868793     18.64832095    0.27316009  -33.06986396
    1   -6.43345615    1.37867705   -9.99880766    -64.00797817   58.91683828  -55.84964244     31.17793829   24.67677984   14.70860869
    8   -6.32643463    0.80832787    5.86678519    -49.40573369 -123.86130461  -86.26927804     -6.08263497    4.33897039    4.26144441
    1   -5.44347709    1.09435144    5.51023869    -31.96651220   60.07693142   80.68974642     13.93564918  -49.47693066  -40.12851690
    1   -6.88505310    1.15815765    6.58280364     80.75807751   62.33166457   -0.17054739    -57.42058449  -21.08841830    8.89459431
    8    3.13698169   -7.73990721    9.95931498     80.87558179  -28.86290092  140.30869823      8.25092168   -6.66245905   12.87274146
    1    3.56447195   -7.06905281    9.37465596    -88.33777116  -33.23538067  -51.90012301    -16.49368393    2.43048056   30.75106980
    1    2.30256346   -8.26536874    9.87334598     10.81478010   59.78479611  -88.22375558     -2.67457791   15.25816664    4.63017640
    8    0.83813116   -6.35475112   -6.34640433     76.24148510  -20.61897609  122.95390076      0.19320771    3.05373968   -5.55373634
    1    1.37639083   -6.55979223   -7.15516450    -97.89452352   30.89508864  -23.23472423     62.56108203  -39.66104074   28.98336849
    1   -0.09500571   -6.04967343   -6.23369063     20.70280968  -10.41630457 -100.23305604    -30.16126684  -26.53460632   43.58269175
    8    6.53945787   -9.21170523    3.37074113     69.39777756  -94.46673146  -47.12955878     -7.03275495   -1.80325477    3.10463098
    1    5.76903084   -9.50763295    3.92990254      3.59956740   94.58899323   -7.34422476     55.56747944  -66.42201845   66.49893804
    1    6.80267254   -8.28846740    3.14521800    -74.46615591    2.25459304   51.55601237     82.35022603    1.30009455  -12.67537613
    8    1.53018732    7.21979397   -7.52730210    131.89699163   -1.54017696   26.48561169     -1.93682872   -9.85922968   -5.01722444
    1    1.25382068    7.10781973   -8.48227284    -78.01189875   11.41841493   62.27894548     52.90066341   40.23568742  -63.64278502
    1    0.98282995    7.38956377   -6.70791002    -51.89061175   -8.21029191  -89.52903123     52.41280515   46.62272707   38.84754590
    8   -0.17467981    7.74244268    3.45057019    -85.94074042  -95.99133716   -0.10921932      2.91420939    2.03829593   -0.23006108
    1    0.15574124    8.12775290    4.27538526     40.58124823   48.73156834  -50.88498856    -65.60982723  -33.67501808   85.92401732
    1    0.06827915    8.00133708    2.53885421     43.43947051   49.96721549   47.93586227    -55.43222980  -75.51056015  -65.09222825
    8    9.17866782    3.19391906    0.16112185     92.12305155  -44.41765081  116.30713731      2.53548620   -0.42687579    1.56603808