 BEGIN_INFO
   #
   # This is a XCRYSDEN-Structure-File
   #
   # aimed for Visualization of geometry
   #
   # Launch as: xcrysden --xsf HICOLM.XSF
   #
   #
 END_INFO
 # estrutura final
CRYSTAL
PRIMVEC
      20.00000000       0.00000000       0.00000000
       0.00000000      20.00000000       0.00000000
       0.00000000       0.00000000      20.00000000
PRIMCOORD
  306    1
    6    7.50209768    7.43278183    7.57379046    -38.55367259   -0.23859570   11.29761909     -1.24480041   -1.92543213   -0.30651424
    6    8.86501735    7.42290576    7.63510390     38.37920266    9.00725479    5.85721661      1.32981613   -1.29160945    1.94535503
    1    6.92732488    6.79190489    8.25125634      5.08283384    4.34470100   -9.36512942     -0.11436606  -12.10390822   11.54586471
    1    6.99435671    8.31568681    7.21314040     -0.47936784   -2.28746041   -4.42161405      4.65848413   22.37816036  -16.95202595
    1    9.44451758    8.28039656    7.26983911     -6.67813022  -11.13179888    2.04218781     -8.40200037    5.28685785  -32.56938896
    1    9.34622032    6.78999584    8.36915118     -1.48892802   -1.62982778   -9.14447091    -10.73504967  -20.56816020   19.00850886
    8    4.59493131    7.08680712   -9.27677125    135.75731257  -23.11295342  -64.04885735     -3.08488329    0.80904697   -0.02967407
    1    3.90370334    7.74341435   -9.21206707    -50.88653841  -53.67785461   62.39239200    -53.35825759   15.46078191  -14.45680898
    1    4.68816905    6.19289705   -8.78910842    -85.82551996   64.30143493    4.86448817     61.07215628  -26.01956349  -42.20575914
    8   -6.13858619   -6.28036093    8.67476159      1.03045080   57.31224246   58.90916476     -2.67437118   -3.37221706   -4.85684509
    1   -6.89082754   -6.91233920    8.60470445     43.17532527   -8.65959401  -38.80232377    -73.51243652   23.94420986  116.76175151
    1   -5.47327161   -6.24108582    7.96826152    -36.53943731  -42.43872517  -19.75085516     71.28630699   77.40050218   47.03334037
    8    7.35427557   -7.52818618   -6.96577791     86.39187339  -36.76893013  -45.72713916     -6.09271677    4.57560225    5.16313263
    1    6.41701607   -7.36412817   -7.10190347     -3.01788403   12.02423513   64.56307827    -40.68081673  -55.83926073  -59.84330269
    1    7.76798717   -7.43765869   -6.04747959    -80.58764960   15.53576849  -28.54508007    119.16386120  -49.11566084  -48.21197372
    8    3.61369498   -8.74155830    4.56968917     45.40927813  -43.72980044  -30.42184112     -2.79645575    3.59273978    4.67656539
    1    3.19850666   -9.52418428    5.06266886    -11.94154166   78.51013073   -2.17901446     78.35871469 -109.90090957  -72.30961509
    1    3.25553540   -7.84749997    4.73183993    -32.74006538  -36.20485286   33.66905846     43.72689229   64.95219146  -50.97812671
    8    7.26864488    9.74957293   -8.63016785     77.87892464   63.14302956  -29.83471714     -5.63010310  -17.55962419    2.12094490
    1    6.57998554    9.22755361   -9.03036547    -29.65344426  -21.96501088   62.41916875     28.77705211   33.51769723 -104.78473278
    1    7.38093203    9.83170171   -7.64388831    -60.15448877  -39.57744112  -26.58857743     85.09386995   95.90659644    7.96348258
    8    8.58635727   -7.34938459    0.96791316    -59.54810321    4.58097546  110.08821889      9.27362794   -4.81767049   -7.54221270
    1    8.59344392   -6.76966238    0.16474787     57.97163386  -78.58012475  -12.44565082     -9.33925787   24.47474205  -29.98642197
    1    9.07753625   -8.24400678    1.13352849      3.93673275   74.66814870  -96.69537542    -71.94358054  -23.01284252   91.32671436
    8    0.25776053    6.72631945    6.50970144   -105.42894240   49.32085617   15.32337927      9.49891388   -1.64625187    2.17381738
    1    0.74530266    6.76283004    5.65552964     46.77184452  -37.58586835   45.88255785    -53.07788464   82.43411630  -51.75886204
    1    0.58820819    6.25732849    7.31042111     53.83010972   -7.78645832  -53.52364597    -23.65754269   86.11894059   93.66342589
    8    7.83028087    1.11044645    3.99645180    -52.56825231  -99.33587499   14.46469878      8.81692650    6.07523777    0.66535323
    1    7.69156479    2.05180562    4.01252279     70.19519202   17.28481057  -20.11023434    -66.52168216   24.80441615  -25.20657541
    1    8.72175202    0.67537368    3.78400482    -16.25256662   86.07210243    8.21742432    -36.49434957 -130.22236572   40.39928752
    8    8.85668419    0.06264857    9.66321567     11.80426947   58.77944816   88.84053218      1.26627720   -9.02364755   -1.11253570
    1    9.58554094    0.05789566    8.99367958    -63.35294305  -50.31940807  -13.60761711     83.98903958   72.02588726   50.81350304
    1    8.06715809   -0.52134353    9.62776532     47.64686185  -13.83285875  -65.37355248    -49.76117871   25.33171039   46.79402443
    8    4.12564082   -7.34438950   -6.30760807     90.53813402   17.28454780   83.61991331     -4.14463183    0.10030753   -2.01428146
    1    3.68301436   -8.21235030   -6.16126757    -29.53900596   33.61509735  -63.32041294     54.21469938  -17.25209320   97.21360489
    1    3.90959509   -6.74389947   -7.02227223    -57.14379487  -46.45393351  -20.33463730      6.46219115   86.81829426   25.06361774
    8   -9.03178456    3.12011999   -7.78156622     27.19910727 -102.53076680  -61.01279902      1.19727967   16.25735474   -0.53928664
    1   -9.91200040    3.37386368   -8.17851595     35.19911636   48.53774494   57.04268358     -5.39478909  -72.64642990 -106.87036141
    1   -8.59476888    3.62435548   -7.09399821    -59.77376651   53.04903775   -2.72338272     55.98654821  -28.88266936   58.39739505
    8   -8.42038941   -8.83532950   -5.57154596     63.74114349  -26.50289051   28.12500344    -16.69874672   11.85712721   -7.23603275
    1   -8.24628333   -8.93166774   -6.53009586    -38.05092881   17.11115827    7.21960416    122.60152306  -61.82262550   -5.98632864
    1   -9.24877505   -8.45997256   -5.35159587    -33.42168126   11.76977219  -34.93464819     -3.82370072    1.90421402  125.02184143
    8   -5.44039685    2.63355935   -8.09542643     56.03235216   45.72687233  -50.00495730      2.65357185  -10.69972391    6.83555112
    1   -6.20991253    2.36785290   -7.67040910    -14.21890567  -44.70772852   27.06746743    -48.90358928   48.96046819  -18.32596276
    1   -4.71228257    1.97425158   -8.05416668    -38.94282835   -4.17077399   19.99405928    129.47244570  107.29997192  -73.02228767
    8    6.82209740    1.03155001    0.50379963      2.86051436  114.24142500  -85.21271140     -3.37996088   -3.45729002   -7.41735052
    1    7.65435025    0.67590966    0.87735346    -67.59136783  -57.32610900   35.41429508     53.86231354   57.51333223  -24.38923437
    1    5.88368416    0.71719129    0.62022526     62.06396834  -54.18853808   52.32811765    -41.67724071   32.93345522  -88.40844922
    8    1.11475401    9.72350123    6.78972524     39.80702683   83.79679776  -65.55340007    -10.17873533  -19.55896627   -6.28220338
    1    1.35580119    8.79975247    6.60218293    -45.09806033  -12.11691497   57.24187661     35.60159676   -1.46599261 -109.19202134
    1    0.50765971    9.98366736    7.50475822      5.00287432  -73.20483585    3.54831723     -7.08326295   97.16513036  -23.90967751
    8    0.75763351    5.89903907   -9.95411471     15.25347123   91.68697144 -112.23081869      3.04199344    2.00542502    6.22460882
    1    1.56506134    5.39570913   -9.65206018    -86.76361583  -20.82346113   64.82907991     30.60168688  -20.74255966  -14.92296331
    1   -0.18354925    5.94766190   -9.60813418     68.54313796  -70.22515676   53.52256844    -50.13241818   31.37252927  -32.94535511
    8    2.58169704   -4.76550350    7.41233935     53.91224829    8.14876621  -92.06838168      4.34102040    0.83583574    3.67075177
    1    1.83452445   -5.38671718    7.37016526     -0.74250528   18.72996879   60.83455732      4.19799655  -34.85242483 -117.46895778
    1    2.81735235   -4.30173242    8.21210404    -54.05014313  -26.52597040   31.78902719     61.34231303   92.47966148  -35.91205937
    8    6.80030169    1.63313717   -8.20376068     70.07728759  111.78853303   21.15366262     -4.18069608   -4.34541063   -0.28069157
    1    7.26758948    0.99063386   -8.81236983    -88.58787487  -30.49479177   37.98677445     76.18161007   24.09771090   -0.88424327
    1    5.93226278    1.55077639   -7.72197569     20.09732060  -82.17324249  -60.55686565    -33.10413948   68.03095344   -5.55508050
    8    3.45373749    0.40574051   -5.13518299    -27.03008526  -56.09199040  -46.34871749      5.11440082   20.11532013    9.43905308
    1    2.77050073    1.11012368   -4.95630865     63.61285169    9.12087525   27.36001871    -99.57786204  -48.04720199  -10.32642265
    1    4.34021679    0.45005305   -4.72845790    -34.31830641   50.60976348   19.84448250     28.83790155  -97.76273697   10.07122496
    8    2.43330236    2.83082066    2.67106025     62.70308848   -4.80132219  -50.45458112     -5.62586285    0.45478998   11.08304124
    1    2.51837585    2.11933876    3.33254095    -49.35241786   38.04435536    6.24970627     90.39631074  -68.53564345  -39.26059428
    1    1.69162524    3.45207013    2.76970606    -13.77074166  -31.85760008   36.41337881    -23.48728563   38.03495938 -116.17325795
    8   -6.92165756    9.54525174   -8.27650118    -83.69404166  -71.64328627   70.37762511      3.50548611    2.40475328  -12.10499625
    1   -6.53856827    8.97854187   -9.02253361     34.80712156  107.86641887   12.98209908    -35.90247082  -67.89758974   31.13560564
    1   -6.76091719   -9.49188819   -8.04074590     54.20900216  -35.64205768  -80.54075525     48.95016538   24.29694729   23.87800551
    8   -5.56197883   -6.16651436    0.76521223    -81.33581570  123.68215123  -26.49150923     -1.42913730   -4.11547939   -2.06501901
    1   -5.91908158   -6.67636982    1.54642447     87.68408855  -45.51405850  -47.92830844     19.73422030   21.66489865   30.56982613
    1   -4.78910336   -6.31109434    0.16177131     -6.82981517  -78.61391076   73.64570572      1.03546028   31.81879711    3.48713432
    8    2.04018267    2.88194644   -4.79510957     70.80229497  -78.34864195   -1.17788660      0.97658367   -0.83598409    2.02971716
    1    2.34197172    3.76087195   -5.10508416    -65.71066517    4.84610056   14.12414008    136.15119474  -17.34304842   -1.16997679
    1    1.13857722    2.71603247   -4.47783589     -4.07047933   68.20981719  -14.57143830     12.23419387 -103.98394158   27.85181331
    8    9.54696190   -5.21136189    6.94601052     -0.34957921   -6.42158173  -64.81269494      1.13098693    2.04403293   11.96178727
    1    9.75344387   -4.26473921    6.97638656     -2.57740985  -12.72051550   30.17147231     13.70725042   16.34055872 -154.44692686
    1    9.48893765   -5.58423647    7.81559319      2.98544028   17.03076878   33.65581855    -58.31579466 -108.11197932  -27.62860164
    8    7.91482463    6.59367706   -5.17326115     45.39715148   58.83651622  -98.73887383     -3.74257598    2.98302192    1.59447777
    1    7.05243993    6.58762340   -5.70019754     13.55321511  -21.61824886   67.69518536     70.76482359   73.94261137 -141.86513366
    1    7.95754807    6.20459527   -4.33670708    -59.76475331  -33.76039156   29.61893829     73.48849206   -6.86143230    4.78584751
    8    0.73137545    0.15156465    0.15888226    -29.87124029   90.11072623   44.73729519      7.63804392   -9.54423572   -2.24803160
    1    0.40211520   -0.32315964   -0.59752260     41.70719948  -48.90314326    5.52988713    -58.41127790   55.46034493  -42.59070315
    1    1.47113318   -0.18800361    0.70331899    -10.55257796  -40.25418136  -50.58936221     25.01415822  101.27091662   84.60745373
    8   -8.72707643    7.06275735    9.87641208     54.64568739  -73.22474005  -85.05725167     -3.66331410   -0.28466273    9.88042099
    1   -9.71787716    6.95875534    9.91410521     39.84360357   57.29457624   61.56311004    -27.27362842   18.67058322  -82.48644854
    1   -8.17882520    7.62855667   -9.54267119    -84.75530948   14.14283731   26.34383230     78.50905546  -26.82943566  -40.94995594
    8    2.09284190    1.99058838    8.52964888     95.74903487  -58.00010671  -13.05224767     -9.83108828    4.52981276   -5.74356173
    1    1.71005297    1.53247901    7.71033366    -32.35925039   45.77694620   44.77138566    107.10916508 -123.08684407   -0.95557488
    1    1.60347336    2.64791953    8.97557206    -63.82075688    9.67010590  -28.06840067     -4.42175978   24.50421008   63.18551603
    8    4.14156637    3.37163140   -9.09535146     49.04703945   93.94689745   38.93450665     -1.76180684  -11.27761150    3.30180875
    1    3.56490941    2.67723343   -8.75806393      1.86803797  -25.42609972  -66.77599719    -17.75926579   -0.02177076   67.73737331
    1    4.45505768    3.45289135    9.95963583    -49.56105534  -66.24275973   27.49602437     57.23031159  113.97171869   24.40453582
    8    1.72171299    7.34507899    0.62040464    -13.13099730  -70.14274607   62.46462342     -0.23008133   12.71615286   -2.54891253
    1    1.73069302    7.06529102   -0.31679415      9.54431839   66.23087982    3.82289925    -46.59840575 -102.45409433   19.22150179
    1    1.88648602    8.27662312    0.86406977      1.26032302    5.74231319  -66.62214968     20.99607346    2.16117859  124.11296010
    8    9.72987521    9.44821725   -9.64110154     76.19364928  -17.19784971  -57.83920151      1.00089172    4.34071919    5.50204332
    1    9.14082139   -9.80185818   -9.88627499    -20.32802901  -32.80484728   62.90339648     27.72709011   -5.11914294 -111.04574538
    1    9.59645287    8.95627861   -8.80348856    -47.99670779   51.37982538  -10.00849376     15.19875849 -121.08191495  -16.90839052
    8    9.75645982    0.35868730   -5.18362656   -100.48312027   23.91605413   58.79545486      2.26236854   -1.34742566   -6.70540121
    1    9.43050535   -0.10885050   -6.02185900    101.53771236   20.42403046   25.65836494    -98.24510476  -54.18077639   42.11639526
    1   -9.31616099    0.55613492   -4.89830863     -0.56709238  -42.25071215  -85.53696950      1.95098709   -1.30129605   54.98331260
    8   -9.04048178   -6.95401663   -8.30945817    -18.47775553  -77.89840838   48.60660450      6.53853988    2.14595508   -2.49375168
    1   -9.14938412   -6.87199586   -9.27704150     14.37658943   56.07025330   22.37781812    -35.09976918 -128.45755691  -45.91324705
    1   -8.85908198   -6.15400702   -7.76791666     -1.44229799   15.68810587  -68.24408051     18.57455296  -73.37411677   97.28079574
    8    3.84422411   -9.88147303   -8.10139655     30.79000202  -10.57320899   91.01216229     -0.66456422   -1.13438628   -9.94384274
    1    3.29288080    9.34723505   -8.33275400      0.78825743   40.65533288  -48.25083259    -36.66576644  -42.90143760  131.93064604
    1    4.02434341   -9.19442007   -8.75429474    -35.87108057  -28.11048769  -41.26896123     65.30166680   84.01907122   49.59312005
    8    0.06452576    0.14034245   -7.80235156    -50.92115475   60.48511892  -18.00792255      5.56222193   -2.31079141    9.24035286
    1    0.88084254    0.03530058   -8.33596822     -5.15732316  -48.41115709   50.27123065    -40.17851170   47.34029006 -108.89103294
    1   -0.14284171   -0.47119829   -7.06116962     57.49895907  -13.45061430  -31.28674487   -100.77273114   10.99411305   27.11840033
    8    4.49591612    9.34583456    0.96946834    -78.76531177   -2.26299142  -26.76357143      7.26521858   -2.92650764   -2.86117784
    1    5.01429543   -9.99734254    1.47123631     39.97594753  -50.05014231   -3.84675395    -57.08547050   84.04348992   18.25185682
    1    4.86740777    8.44066687    0.78652813     36.65483704   53.20542080   34.18685177   -102.16446099  -48.54387606  -59.41518755
    8   -5.08621368    6.80122341   -9.68938758     30.06365496   84.53872546 -105.19646308     -0.46401402   -0.23509314    4.97076759
    1   -4.47125050    6.73942770   -8.92965857    -68.70853146  -58.05967509   21.47357921     79.00456290    0.24826328  -22.16981479
    1   -5.94265409    6.33867704   -9.82948824     33.39126247  -29.60664229   85.12495193    -26.94529499   52.57600235  -67.91567294
    8   -9.72708687    4.04259703    3.45326734      9.42060652  -80.05048205  -50.27649612      1.40848955    7.53349195   18.43738396
    1   -9.50053800    4.95113009    3.28529492    -19.57114766   19.96020810   50.21512493     51.49779628    6.35721813  -69.67646015
    1    9.85063431    3.80096616    4.30788248      9.13902809   61.03180209    4.24511513    -19.56172379 -126.18751387  -17.06548146
    8   -8.41010545    7.59912125   -4.72167940     57.96681726 -106.80214200 -118.09419336      2.00860070   -5.08126005    2.39051150
    1   -7.98209298    7.49716060   -3.85039885    -65.95039568   74.30146032   19.67870009     38.28918620   -5.53859203  -25.32556632
    1   -9.12507153    8.18864078   -5.02408586      8.69986712   30.07499783   96.62229963    -51.46781369  -26.34791722   15.60414956
    8    3.16678579    8.67641542    8.95510418    -44.42660483   93.97973326  -18.33250351      7.39427623   -8.72326325    6.62486931
    1    2.43545881    7.99272382    8.95478130     81.81743853  -24.25989404   15.45232786    -66.86344008   40.31906644  -23.64510738
    1    4.10788504    8.50003176    9.17919587    -39.58553329  -71.69601486    0.20926871     26.10340008   92.26376777   26.68956023
    8   -5.32442727    9.37972044    9.21835406    -73.04330699   66.53423973   29.90206180      1.16677625   -6.10136215    5.16099693
    1   -4.40281010    9.67907065    9.04528860     -9.55011230  -74.30852972  -12.80440046      2.78878425   95.04942257   15.54442941
    1   -5.62842315    8.44114699    9.11336349     81.66763498    9.20839380  -16.29585839   -111.70670838    7.09067627   18.62319853
    8   -9.93484434    5.84353011   -7.52963827     61.33544365  -44.46961020  -59.21570718     -5.60603596    0.19823391    8.95023420
    1    9.12154019    5.83880801   -7.33820601     11.87565396   50.57229612   48.13698703    -40.82203724  -62.54227087  -39.27684304
    1   -9.29726512    6.46194905   -7.07666311    -76.55804041   -1.49516992   16.40126529    100.14046649   -0.15334219  -88.16459950
    8    8.89921525   -6.67805258    9.40854584     45.81739294   34.92246108  -15.26449482     -1.34252326   -9.15589635    4.07295845
    1    8.72687334   -6.97195999   -9.68686742    -27.98310709  -18.38493456  -12.35477689    107.63509777   50.47623973   63.90103402
    1    8.32308735   -7.08648815    8.75391724    -18.40011712  -16.49599751   29.04019206     51.32690992   52.33211690 -102.46707374
    8    2.27497275    6.98472457    4.79446979    -24.21733635   41.57037893   40.98696163      2.52997633  -11.44338253   -5.14329218
    1    2.24245211    7.13358943    3.83250390     24.15201483  -46.13256103    6.26081953    -63.04291060   87.61247224   -8.14459288
    1    2.70160999    6.15904703    5.11216806      9.82522651    2.35034741  -56.28416808    -10.42755615   -0.30644078  140.36717808
    8    3.97231387    0.36728381    4.19730554     71.82031837  -43.65386948    4.98095548    -10.37865479    3.35603597    2.65201548
    1    3.59274888   -0.51386660    3.97817121    -13.90763613   35.53101073    3.74068400    177.48403477  -94.30369720  -12.76978131
    1    3.34613252    1.02654342    4.21939844    -55.06713592    7.57682285   -2.58129123     29.74487722   53.18083341   39.17874689
    8   -7.27258715    4.20839035    8.54141655     69.39620753 -110.61185539  -52.16949575     -8.08797252    7.02705508    5.80848187
    1   -8.20489053    4.31502958    8.32426268      0.03356298   70.26497361   46.76637279    -29.74883912  -47.22783718  -41.10793450
    1   -6.73994324    4.79570854    9.09942644    -73.13917055   36.53080351    3.14591386    102.05028230  -63.19922525   16.41900024
    8   -4.61181839   -6.08784666    5.46277785     63.73243705  -20.11733577   70.67911698     -4.15612321    0.30949577  -12.11764885
    1   -4.11963223   -5.39314284    4.97305525    -56.05607916  -14.69887482  -22.56987021    116.96831525   -3.58043781   77.87887565
    1   -5.46666954   -6.36241205    5.15626281    -10.80089977   35.25386680  -46.59793636    -41.89102198  -55.34689381   64.90004404
    8    2.40109268    5.36693789    7.69690466     -6.71073640   31.73081078   85.87034822      0.82933576  -15.86897238   -7.98600983
    1    2.46016342    5.22509771    6.77687622     10.77704677  -51.71498723  -20.93336068     15.68444291   79.72131048  -53.76364151
    1    2.45208146    4.55730887    8.28610992      3.55519536   15.75801551  -65.93589107    -18.13039961   80.70780841  159.85627290
    8   -5.09418804    7.48856634    2.96190328    -41.41925363 -132.04893920   27.99776943      3.79028725    5.06467501    1.86074687
    1   -4.45058112    7.73788417    2.26006026    -28.48222661   84.89128629   46.61775785      2.74721437  -29.44620106  -61.13164139
    1   -5.61900047    8.04673467    3.62504185     70.46538294   46.57783261  -72.59052516    -37.43132638  -71.73827333   67.41769036
    8    0.74249247    3.14071526   -7.95430734     72.44526938  121.97835307  -42.42162957     -7.14530359   -3.51237974   -5.73531674
    1    0.86846658    2.48553872   -8.70612564    -63.50012908  -31.12165141   90.86704767     61.44718966   65.70544539  -59.60660429
    1    0.24438963    3.06725326   -7.10780256    -10.59132183  -90.22930264  -49.91561894     23.36333934   -6.88475940   48.32779522
    8    3.35770759    4.11247218   -0.34509146    -24.36113813  -50.77174043  -67.50834986      4.24965628    6.37590381    9.16374658
    1    3.47516672    5.06048590   -0.48590325     13.00826010   -4.76566380   58.82687418    -15.38845522    8.03534585 -114.03795506
    1    3.50981083    3.72848723    0.53298303      9.51339372   56.51048700   11.08252691     12.27255883 -132.02203807  -22.07912821
    8   -5.81968985   -9.74300367    0.99403497    -81.65441665   32.44823674   62.55040050      9.09818886   -8.28186013   -0.92202272
    1   -5.11748679   -9.99905673    0.47061512     30.40023489  -51.31111542  -21.00935107     33.74129984   49.39065973  -29.69854486
    1   -6.31108748    9.48981667    1.43660441     46.65570387   14.95490389  -40.51391746   -134.64556863  110.26869974   82.86120549
    8    8.71166361    8.64268382    2.91087713     90.57576442   -4.24889515  -26.91313700    -19.60948685   10.86798569    9.20086337
    1    8.00645496    7.99191766    2.94228057    -33.97989416   39.07692071   21.44518296     24.97436951  -79.73362815  -29.43760643
    1    8.52775415    9.55978905    3.19715907    -54.82946564  -32.53086720    9.48034906    116.73238575   47.52055612   18.59171876
    8   -7.59013001    2.23854326   -5.47580715      7.80374568  -80.61045050   63.40434603     -5.63018346    8.20036859   -1.44501780
    1   -8.08856922    2.84128493   -4.81713582     35.11835035   14.25936534  -96.39096381      3.87239714  -67.22227957  120.91954281
    1   -7.30713999    2.48765267   -6.38970002    -43.35553953   63.13602432   43.37835994     -1.53002886  -49.85847738  -47.65295326
    8    5.46751537    7.60663485   -6.65104196     80.27334516  -70.60907543   26.70532939     -8.86093396    6.08895142    4.20081218
    1    5.14434658    7.19710096   -7.53636395    -32.98366869   89.70559884   54.34365148     68.53596300  -23.30557080  -42.68594363
    1    5.09698694    8.40533481   -6.19679308    -41.51372696  -16.68596083  -77.26987966      7.11110052   55.22484571   47.16281554
    8    0.10191564    3.51261934    4.45495973      3.17448009 -107.29928367   74.46632107      2.78784585   -0.23775016  -15.12775658
    1   -0.57463104    3.31219294    3.75859619     35.57208517   75.14562841   -9.29360800   -121.79606559  -16.99386405   61.52783058
    1    0.60400313    4.32306057    4.49607369    -37.99775240   32.38439063  -61.63833540     10.85003430   13.48039849   93.48921335
    8    5.26887196    2.34513299    6.47031806     34.92570069   97.84180567   -1.52392331     -0.39474469   -5.71817685   -3.33134871
    1    5.33151038    1.93845541    5.55052621    -37.40712071  -51.71642105   72.37421962      1.56910117   76.89508722  -59.94111084
    1    4.87679958    1.92413475    7.28206504      0.09595441  -51.96354123  -73.76252122    -41.16660396   20.16973160   19.35083693
    8   -6.97171334    5.01513653    1.50593967      6.31307587   82.47854097  -67.30252986     -7.08502499   -3.54054154   12.51291496
    1   -7.45039104    4.21030416    1.24838879     18.13856002  -16.71272561   64.41984560    -30.27721582   21.31555472  -96.77570126
    1   -6.56446997    5.12265778    2.38480837    -25.19882863  -61.54030028    3.16047217     71.72809023   92.23428434   -5.96572465
    8    0.85368683   -6.88195233    5.30425506     87.04519077   -0.49373644   52.74201332    -11.10195593    4.90095732   -6.97368614
    1    0.40222268   -7.52547780    4.77956490    -47.51515512   26.51269092  -17.96612206     45.87349476  -80.72600687    3.52444527
    1    0.47212399   -5.99731746    5.40434115    -37.74585463  -25.57583172  -34.79270509    104.90457684   68.24781770   66.16184437
    8    8.56272566    9.61953380   -5.34871912   -103.55901542   94.97791373   10.44663715      4.12053848  -13.28457293   -2.11930798
    1    8.49972717    8.86306293   -4.70054676     80.11019321   -7.71432158  -64.65521201    -33.10156514   20.46995024   49.92783703
    1    9.23561320    9.83992105   -6.04304763     23.38074254  -86.90677232   49.77107027    -28.08105982   33.31137049  -15.92533755
    8   -9.16141176   -9.56052624    0.73116894    -62.73758159   24.75980235   -4.56635208      3.07630482  -17.38703180    7.53626425
    1   -9.37036623    9.93956348    1.54700341     39.01360479   -2.97997311  -17.58923552   -145.27891245   43.69567193   17.32615628
    1   -8.25594103   -9.66158259    0.45964443     18.57777881  -20.91259992   23.16026066     18.55047520   85.52745030  -70.64592319
    8   -5.65641433   -9.40833917    4.79586723    -42.74446324  -57.29617612   53.97258387      4.48373002    4.61537545   -9.30629383
    1   -6.08761786   -8.93946094    4.07389956     52.22575446   20.77558732  -11.09824054    -99.74065958  -15.61178545   13.67184320
    1   -4.70169790   -9.30882506    4.93605169    -10.38265374   35.18165345  -44.69269163     13.22992244  -44.87416171  108.86414955
    8    6.26273446    5.64948589    0.43228587      9.28806138  -56.42711099   74.32103830      0.37171713    8.38477406   -7.17335578
    1    6.60329891    6.51235924    0.75329594    -18.62985077    2.09880809  -60.01904226     48.68642661  -35.94692880  103.96828019
    1    5.89504766    5.57269796   -0.44334095     11.30944265   54.73004538  -15.09845642    -49.18175775  -88.24583715   -1.37295101
    8   -6.32113535    1.18297857    9.03382971     91.72826566  -87.41417985  -30.80986457     -4.57815301    7.31529831    0.32152459
    1   -6.82064515    1.54322658    8.27810016    -34.44511565   41.11615450   74.73489735     35.05015179  -21.03608676  -74.81374680
    1   -6.46912177    1.37020132    9.98041674    -56.07646512   50.96224136  -38.12278934     60.57462086   -2.07128392   37.67737573
    8   -6.32225977    0.80361943    5.86253035    -34.07539307  -95.24044232  -71.09442701     -4.81093267    7.71339612    6.68403662
    1   -5.45951722    1.14284149    5.55496900    -19.89880738   43.62620491   57.49392750     26.63954378  -74.81667934  -73.87619500
    1   -6.82723674    1.18545563    6.57644505     53.66837885   50.37123858    8.21349328    -90.17258567  -48.66511800    6.90047036
    8    3.13156169   -7.73504957    9.95099705     78.90886194  -15.10484945  129.80433083      5.80127917   -5.99238897    8.73078017
    1    3.56068882   -7.07771843    9.34165260    -86.06889329  -41.27974290  -43.87004857     26.09868778   20.66365878   54.09637447
    1    2.30664701   -8.26627014    9.85327176     10.21675086   53.42241518  -86.28306540     -7.85502907  -12.40004376   47.20680006
    8    0.83883164   -6.35737269   -6.34080224     62.29122876  -23.88631648   85.93753688     -1.93678927    3.75441344   -8.77115212
    1    1.31147637   -6.52364123   -7.18140881    -68.75051830   25.35042898  -15.03369319    103.25279304  -53.54454214   38.34885493
    1   -0.06876826   -6.03054426   -6.28442703      5.61935922   -1.49614591  -71.43693151    -36.59153148  -23.74387000   85.53053436
    8    6.54559921   -9.21135639    3.36790805     38.50753450  -73.63140413  -18.14316755     -8.72035948    0.79346685    4.08746496
    1    5.72698854   -9.44049500    3.87688655      7.92818098   62.71693235  -10.84805524     53.00305370 -104.93546900   71.12943177
    1    6.72664995   -8.28835779    3.16307461    -48.13204277   12.28738383   26.65207001    112.47145892   -2.39523940  -31.57277816
    8    1.53310709    7.22744818   -7.52309250     95.42260105   11.10845107   30.63168951     -5.44168734  -10.03465717   -5.90943075
    1    1.19947680    7.07819087   -8.42346376    -58.16579379    1.10829875   30.01322452     86.28256323   37.35669664  -86.10357379
    1    0.93366548    7.35179809   -6.75304219    -34.29221752  -10.22349275  -61.55971730     73.53578392   51.37780734   75.81128796
    8   -0.17781170    7.73990135    3.45070108    -49.69733026  -51.79934200  -10.89629953      5.01558229    4.32126153   -0.05439351
    1    0.21316983    8.16180974    4.20202408     25.85032741   30.02303127  -11.44123690    -81.98267363  -53.04844853  100.95180240
    1    0.11796414    8.06741601    2.59631712     22.02656474   23.83055960   19.47423878    -71.56017448  -93.57318199  -81.47941998
    8    9.17774393    3.19363295    0.16135807     77.41427811  -66.78454274  131.82601873     -0.06634291    1.28131773   -2.25522279