 BEGIN_INFO
   #
   # This is a XCRYSDEN-Structure-File
   # aimed for Visualization of Fermi Surface
   #
   # Case: Tight-binding calculation
   #
   # Launch as: xcrysden --xsf HICOLM.XSF
   #
 END_INFO
 # estrutura final
CRYSTAL
PRIMVEC
      15.00000000       0.00000000       0.00000000
       0.00000000      15.00000000       0.00000000
       0.00000000       0.00000000      15.00000000
PRIMCOORD
  306    1
    6   -7.49368072    7.49999991   -7.40000009      0.00000000    0.00000000    0.00000000      0.00000000    0.00000000    0.00000000
    6   -6.16000072    7.49999991   -7.40000009      0.00000000    0.00000000    0.00000000      0.00000000    0.00000000    0.00000000
    1    6.96131928    6.55602991    7.39999991     -0.02432197   -0.05842071    0.00388223      0.00000000    0.00000000    0.00000000
    1    6.96131928   -6.55603009   -7.45291781     -0.02694934    0.00230348    0.04442632      0.00000000    0.00000000    0.00000000
    1   -5.61500072   -6.55603009    7.39999991      0.03501596   -0.01288980    0.04158779      0.00000000    0.00000000    0.00000000
    1   -5.61500072    6.55602991   -7.34708237     -0.07629934    0.21412468    0.04964253      0.00000000    0.00000000    0.00000000
    8    4.48672144    6.57850958   -4.33820656      2.67421191    7.46999907    1.90112622      0.00000000    0.00000000    0.00000000
    1    4.04607944    7.28524758   -3.78474256      0.00000000    0.00000000    0.00000000      0.00000000    0.00000000    0.00000000
    1    5.39338744    6.43734258   -4.73569456      0.00000000    0.00000000    0.00000000      0.00000000    0.00000000    0.00000000
    8   -0.96842495   -1.13174753   -6.54714104      4.62412490  -23.33940272   -5.66341599      0.00000000    0.00000000    0.00000000
    1   -1.78186195   -1.54865253   -6.95270004      0.00000000    0.00000000    0.00000000      0.00000000    0.00000000    0.00000000
    1   -0.10590595   -1.46214953   -6.16391504      0.00000000    0.00000000    0.00000000      0.00000000    0.00000000    0.00000000
    8   -7.16194838   -2.53122000   -2.07947872     -3.60582938   -0.53339441   -0.25213346      0.00000000    0.00000000    0.00000000
    1   -6.55477838   -2.54791900   -1.28510372      0.00000000    0.00000000    0.00000000      0.00000000    0.00000000    0.00000000
    1    7.33512362   -1.83075200   -2.58581172      0.00000000    0.00000000    0.00000000      0.00000000    0.00000000    0.00000000
    8    3.28676110   -3.67768168    4.72518225     44.77849634  -15.32524778    2.61042029      0.00000000    0.00000000    0.00000000
    1    3.59622110   -3.43671968    5.64504025      0.00000000    0.00000000    0.00000000      0.00000000    0.00000000    0.00000000
    1    2.54967310   -4.23007368    4.33591125      0.00000000    0.00000000    0.00000000      0.00000000    0.00000000    0.00000000
    8    6.79943489   -4.92501923   -3.40201598      2.10372989   -3.17801800   -1.56797452      0.00000000    0.00000000    0.00000000
    1    6.54326489   -4.92402023   -2.43540198      0.00000000    0.00000000    0.00000000      0.00000000    0.00000000    0.00000000
    1    7.05877089   -4.23538823   -4.07812198      0.00000000    0.00000000    0.00000000      0.00000000    0.00000000    0.00000000
    8   -6.65021998   -2.31516745    1.23788023     12.65846407   -8.84379031    8.22811529      0.00000000    0.00000000    0.00000000
    1   -6.23613298   -2.69190645    2.06647323      0.00000000    0.00000000    0.00000000      0.00000000    0.00000000    0.00000000
    1   -6.34227998   -1.74884145    0.47341023      0.00000000    0.00000000    0.00000000      0.00000000    0.00000000    0.00000000
    8   -0.06618625    6.60833418    6.37639464     -1.14961974    0.16591857    0.62838059      0.00000000    0.00000000    0.00000000
    1    0.43539875    7.47280818    6.34378264      0.00000000    0.00000000    0.00000000      0.00000000    0.00000000    0.00000000
    1    0.02848575    5.73970818    6.86269964      0.00000000    0.00000000    0.00000000      0.00000000    0.00000000    0.00000000
    8   -7.21436042    1.20969440    3.92374566   -109.81974051  168.87694124   25.85151635      0.00000000    0.00000000    0.00000000
    1   -6.84115442    2.03827540    4.34104566      0.00000000    0.00000000    0.00000000      0.00000000    0.00000000    0.00000000
    1   -6.86799542    0.29907040    3.69844266      0.00000000    0.00000000    0.00000000      0.00000000    0.00000000    0.00000000
    8   -6.41004307    0.05214202   -5.63123264   2122.9656961221965.44869395 3297.05620856      0.00000000    0.00000000    0.00000000
    1   -7.40937307    0.03258602   -5.60084964      0.00000000    0.00000000    0.00000000      0.00000000    0.00000000    0.00000000
    1   -5.66907907    0.00986302   -4.96104464      0.00000000    0.00000000    0.00000000      0.00000000    0.00000000    0.00000000
    8    4.13888934   -2.36188693   -1.61060719      2.52182902   -9.65398034   -0.30784318      0.00000000    0.00000000    0.00000000
    1    5.00937734   -2.84199293   -1.50236419      0.00000000    0.00000000    0.00000000      0.00000000    0.00000000    0.00000000
    1    3.17755034   -2.62500393   -1.69161419      0.00000000    0.00000000    0.00000000      0.00000000    0.00000000    0.00000000
    8   -4.22392710    2.92046655   -2.75598947      0.22454417   -0.21158704    0.23572650      0.00000000    0.00000000    0.00000000
    1   -3.75387910    3.62918355   -3.28205147      0.00000000    0.00000000    0.00000000      0.00000000    0.00000000    0.00000000
    1   -5.02208810    2.33369355   -2.89238247      0.00000000    0.00000000    0.00000000      0.00000000    0.00000000    0.00000000
    8   -3.36145945   -4.23695437   -0.68286833  22908.78458371-3585.15200278**************      0.00000000    0.00000000    0.00000000
    1   -3.94488845   -3.48779737   -0.99646233      0.00000000    0.00000000    0.00000000      0.00000000    0.00000000    0.00000000
    1   -2.59096945   -4.33326837   -0.05276133      0.00000000    0.00000000    0.00000000      0.00000000    0.00000000    0.00000000
    8   -0.73950119    2.56840566   -3.30793860  **************-3657.93726296-3772.93139863      0.00000000    0.00000000    0.00000000
    1   -0.00044219    1.90938966   -3.44742460      0.00000000    0.00000000    0.00000000      0.00000000    0.00000000    0.00000000
    1   -0.80341019    3.53964566   -3.07864760      0.00000000    0.00000000    0.00000000      0.00000000    0.00000000    0.00000000
    8    6.90761123    0.97171685    1.33039952    167.72676066  343.15038422 -166.30993846      0.00000000    0.00000000    0.00000000
    1    6.36552023    1.81000185    1.38854352      0.00000000    0.00000000    0.00000000      0.00000000    0.00000000    0.00000000
    1    6.71382723   -0.00635215    1.25426652      0.00000000    0.00000000    0.00000000      0.00000000    0.00000000    0.00000000
    8    1.49729637   -4.43507569    7.30675529      7.27636963   -0.12589465  -16.08431588      0.00000000    0.00000000    0.00000000
    1    1.85817437   -5.22129569    6.80516629      0.00000000    0.00000000    0.00000000      0.00000000    0.00000000    0.00000000
    1    0.70741937   -4.25718569   -7.10637371      0.00000000    0.00000000    0.00000000      0.00000000    0.00000000    0.00000000
    8    0.58337095    5.55426372   -4.80738245  21286.20292120**************-2739.97407668      0.00000000    0.00000000    0.00000000
    1    0.02057295    6.38083272   -4.81037245      0.00000000    0.00000000    0.00000000      0.00000000    0.00000000    0.00000000
    1    1.56224695    5.35050872   -4.82331445      0.00000000    0.00000000    0.00000000      0.00000000    0.00000000    0.00000000
    8    2.31098424   -0.17833389   -7.16728620     12.00897489  -48.20857589  -16.29100098      0.00000000    0.00000000    0.00000000
    1    2.74356424    0.00113811    6.94918080      0.00000000    0.00000000    0.00000000      0.00000000    0.00000000    0.00000000
    1    1.41781324   -0.00033689   -6.75433420      0.00000000    0.00000000    0.00000000      0.00000000    0.00000000    0.00000000
    8    6.82372585    1.52527415   -3.09636909      5.20966679    2.74838773   -0.99245443      0.00000000    0.00000000    0.00000000
    1    6.63763885    2.50673315   -3.14192909      0.00000000    0.00000000    0.00000000      0.00000000    0.00000000    0.00000000
    1   -7.36134015    0.95027815   -3.02405709      0.00000000    0.00000000    0.00000000      0.00000000    0.00000000    0.00000000
    8    3.28687248    0.06398108   -0.57105135  ******************************************      0.00000000    0.00000000    0.00000000
    1    2.44686848   -0.01991992   -0.03502835      0.00000000    0.00000000    0.00000000      0.00000000    0.00000000    0.00000000
    1    4.19565448    0.45572308   -0.42745835      0.00000000    0.00000000    0.00000000      0.00000000    0.00000000    0.00000000
    8    2.62695257    2.99181393    2.43868199      6.26968382   -5.55550798   26.26578449      0.00000000    0.00000000    0.00000000
    1    2.53583757    3.96250093    2.66101299      0.00000000    0.00000000    0.00000000      0.00000000    0.00000000    0.00000000
    1    2.30367457    2.13063493    2.83089199      0.00000000    0.00000000    0.00000000      0.00000000    0.00000000    0.00000000
    8   -2.16545518   -5.47739083   -2.77047631      6.06452412   -6.84440680   -9.38903785      0.00000000    0.00000000    0.00000000
    1   -3.11366718   -5.78520883   -2.84864031      0.00000000    0.00000000    0.00000000      0.00000000    0.00000000    0.00000000
    1   -1.27868518   -5.91214583   -2.61364931      0.00000000    0.00000000    0.00000000      0.00000000    0.00000000    0.00000000
    8   -0.57410675   -1.20621923    0.74335923  **************-6465.30856933 2276.73687632      0.00000000    0.00000000    0.00000000
    1   -1.42420275   -0.97922423    1.21852023      0.00000000    0.00000000    0.00000000      0.00000000    0.00000000    0.00000000
    1   -0.00893275   -2.02350723    0.63117323      0.00000000    0.00000000    0.00000000      0.00000000    0.00000000    0.00000000
    8    1.62366241    2.99773973   -0.02038791  -2260.13717329-1554.24100598    6.22458305      0.00000000    0.00000000    0.00000000
    1    2.59172341    2.74971773   -0.05657591      0.00000000    0.00000000    0.00000000      0.00000000    0.00000000    0.00000000
    1    1.10034241    3.84867573    0.02444909      0.00000000    0.00000000    0.00000000      0.00000000    0.00000000    0.00000000
    8   -5.39572543   -0.12446411    6.76931992    345.66050426 -187.91747157    6.44450732      0.00000000    0.00000000    0.00000000
    1   -6.38645443    0.00247789    6.81735092      0.00000000    0.00000000    0.00000000      0.00000000    0.00000000    0.00000000
    1   -4.77186043   -0.90468711    6.72446492      0.00000000    0.00000000    0.00000000      0.00000000    0.00000000    0.00000000
    8   -7.15024945    6.26186747   -0.00276898   4313.41753776 1836.45541309-1812.03605005      0.00000000    0.00000000    0.00000000
    1    7.08930855    5.61250547    0.00203802      0.00000000    0.00000000    0.00000000      0.00000000    0.00000000    0.00000000
    1   -7.05436345    7.25724247   -0.00376998      0.00000000    0.00000000    0.00000000      0.00000000    0.00000000    0.00000000
    8    0.76992448   -0.33262140    0.44950810  **************41599.08141512**************      0.00000000    0.00000000    0.00000000
    1    0.17452348    0.46793360    0.51716710      0.00000000    0.00000000    0.00000000      0.00000000    0.00000000    0.00000000
    1    1.73740848   -0.49517440    0.25581410      0.00000000    0.00000000    0.00000000      0.00000000    0.00000000    0.00000000
    8   -3.54173347    6.98697165   -5.22757099     -0.07116786   -0.17951788   -0.24200276      0.00000000    0.00000000    0.00000000
    1   -2.86528747   -7.28287435   -5.13132999      0.00000000    0.00000000    0.00000000      0.00000000    0.00000000    0.00000000
    1   -4.48311947    6.83436065   -4.92678999      0.00000000    0.00000000    0.00000000      0.00000000    0.00000000    0.00000000
    8    2.27927974    2.05255869   -6.16487224     -1.95045677   49.66220194   21.92793390      0.00000000    0.00000000    0.00000000
    1    2.94097374    1.86475969   -6.89072324      0.00000000    0.00000000    0.00000000      0.00000000    0.00000000    0.00000000
    1    1.35480474    1.74657669   -5.93752124      0.00000000    0.00000000    0.00000000      0.00000000    0.00000000    0.00000000
    8    4.10598037    3.86094980   -4.50423483     -0.50350916   -9.56656865    0.75618835      0.00000000    0.00000000    0.00000000
    1    4.25278037    3.84473980   -5.49325083      0.00000000    0.00000000    0.00000000      0.00000000    0.00000000    0.00000000
    1    4.04752737    3.17976880   -3.77447983      0.00000000    0.00000000    0.00000000      0.00000000    0.00000000    0.00000000
    8    1.84167718    7.09252747    0.34693624      0.47051927   -0.11928493   13.13014884      0.00000000    0.00000000    0.00000000
    1    2.81358418    7.27659947    0.20037024      0.00000000    0.00000000    0.00000000      0.00000000    0.00000000    0.00000000
    1    0.99347618   -7.38074753    0.29141624      0.00000000    0.00000000    0.00000000      0.00000000    0.00000000    0.00000000
    8   -5.20352365   -5.31730073   -4.56284064     -0.12959576    0.41902264    0.32306978      0.00000000    0.00000000    0.00000000
    1   -5.65418865   -5.90594273   -3.89174564      0.00000000    0.00000000    0.00000000      0.00000000    0.00000000    0.00000000
    1   -5.49891065   -4.66492673   -5.26078064      0.00000000    0.00000000    0.00000000      0.00000000    0.00000000    0.00000000
    8   -4.83414172    0.68711784   -0.26983993  **************11919.25142844-2507.07543121      0.00000000    0.00000000    0.00000000
    1   -4.18378172   -0.02375916   -0.00216193      0.00000000    0.00000000    0.00000000      0.00000000    0.00000000    0.00000000
    1   -5.76866072    0.93873484   -0.01818293      0.00000000    0.00000000    0.00000000      0.00000000    0.00000000    0.00000000
    8   -4.63754159   -1.95812572   -3.16512989      5.99491332    0.43615157   -2.33632153      0.00000000    0.00000000    0.00000000
    1   -3.72660159   -2.30675172   -3.38561689      0.00000000    0.00000000    0.00000000      0.00000000    0.00000000    0.00000000
    1   -5.05022159   -1.05692672   -3.03283089      0.00000000    0.00000000    0.00000000      0.00000000    0.00000000    0.00000000
    8    3.87519912   -4.88942916   -3.36550863     -4.24759183   -1.15109146   -0.39513661      0.00000000    0.00000000    0.00000000
    1    3.13193412   -5.15981616   -2.75361463      0.00000000    0.00000000    0.00000000      0.00000000    0.00000000    0.00000000
    1    4.15621612   -4.04859416   -3.82810163      0.00000000    0.00000000    0.00000000      0.00000000    0.00000000    0.00000000
    8    0.60552606    0.13345664   -2.91662103      2.48694263  291.78218906 -427.66699004      0.00000000    0.00000000    0.00000000
    1    0.54427606   -0.00689536   -1.92843203      0.00000000    0.00000000    0.00000000      0.00000000    0.00000000    0.00000000
    1    0.00216206   -0.00623336   -3.70173503      0.00000000    0.00000000    0.00000000      0.00000000    0.00000000    0.00000000
    8    4.74426319   -5.45046807    1.23972742     -4.35093617   -3.55903823   -4.32328169      0.00000000    0.00000000    0.00000000
    1    5.41192219   -5.18392107    0.54463642      0.00000000    0.00000000    0.00000000      0.00000000    0.00000000    0.00000000
    1    4.54446719   -6.27722807    1.76557442      0.00000000    0.00000000    0.00000000      0.00000000    0.00000000    0.00000000
    8   -0.38946819    6.70098206   -4.68219296  **************25087.46777091 2739.62322811      0.00000000    0.00000000    0.00000000
    1   -0.03422319    6.30419506   -5.52855396      0.00000000    0.00000000    0.00000000      0.00000000    0.00000000    0.00000000
    1    0.00181481    7.03494706   -3.82467796      0.00000000    0.00000000    0.00000000      0.00000000    0.00000000    0.00000000
    8   -4.94699719    4.00489518    3.01113897      2.00597017    0.82841096    4.43074212      0.00000000    0.00000000    0.00000000
    1   -4.88090619    5.00144918    2.96134697      0.00000000    0.00000000    0.00000000      0.00000000    0.00000000    0.00000000
    1   -4.51916719    3.28185318    3.55348397      0.00000000    0.00000000    0.00000000      0.00000000    0.00000000    0.00000000
    8   -3.41759248   -6.97865759    0.05146188   -191.91616664  216.42091351 -843.60210048      0.00000000    0.00000000    0.00000000
    1   -2.56178748   -7.03032759   -0.46321912      0.00000000    0.00000000    0.00000000      0.00000000    0.00000000    0.00000000
    1   -4.33689648   -7.36108959   -0.04122812      0.00000000    0.00000000    0.00000000      0.00000000    0.00000000    0.00000000
    8    3.03924327   -6.56092764   -6.06646080     -0.90200346    1.55246130   -1.72963594      0.00000000    0.00000000    0.00000000
    1    2.12814927   -6.97176364   -6.03344080      0.00000000    0.00000000    0.00000000      0.00000000    0.00000000    0.00000000
    1    3.41697327   -5.64007664   -5.96992780      0.00000000    0.00000000    0.00000000      0.00000000    0.00000000    0.00000000
    8   -0.07747832   -5.67016779   -5.98988044    -11.49943414   -7.06470327   11.41116937      0.00000000    0.00000000    0.00000000
    1   -0.69466432   -6.19021379   -6.58030444      0.00000000    0.00000000    0.00000000      0.00000000    0.00000000    0.00000000
    1    0.01497268   -5.51307279   -5.00665144      0.00000000    0.00000000    0.00000000      0.00000000    0.00000000    0.00000000
    8   -4.94522909    6.05357201   -2.33320909      0.26867517    0.53328373   -0.09324888      0.00000000    0.00000000    0.00000000
    1   -3.95530409    6.19291301   -2.30872409      0.00000000    0.00000000    0.00000000      0.00000000    0.00000000    0.00000000
    1   -5.75444609    6.64104601   -2.33622809      0.00000000    0.00000000    0.00000000      0.00000000    0.00000000    0.00000000
    8   -6.55806398   -1.47879610   -5.86000536  -2123.17416349**************-3278.45034308      0.00000000    0.00000000    0.00000000
    1   -5.56952698   -1.52052710   -5.71502436      0.00000000    0.00000000    0.00000000      0.00000000    0.00000000    0.00000000
    1   -7.36651998   -1.37877710   -5.28003836      0.00000000    0.00000000    0.00000000      0.00000000    0.00000000    0.00000000
    8    2.50795878    7.18537294    4.57177577      3.09226231   -0.11376279    0.80678958      0.00000000    0.00000000    0.00000000
    1    3.42623378   -7.41916806    4.59047977      0.00000000    0.00000000    0.00000000      0.00000000    0.00000000    0.00000000
    1    2.12235678    6.26302294    4.54835277      0.00000000    0.00000000    0.00000000      0.00000000    0.00000000    0.00000000
    8    3.94809650    0.35643125    4.13444698     -3.78627906    0.79373665    1.99738455      0.00000000    0.00000000    0.00000000
    1    4.87478850    0.06110425    3.90208598      0.00000000    0.00000000    0.00000000      0.00000000    0.00000000    0.00000000
    1    3.06253750   -0.08938075    4.26484398      0.00000000    0.00000000    0.00000000      0.00000000    0.00000000    0.00000000
    8   -2.18856635    4.14834953   -6.51089462     -0.40352549    2.03625977   -0.60010569      0.00000000    0.00000000    0.00000000
    1   -1.25137735    4.00838253   -6.83035062      0.00000000    0.00000000    0.00000000      0.00000000    0.00000000    0.00000000
    1   -2.62254435    4.42347053   -5.65302562      0.00000000    0.00000000    0.00000000      0.00000000    0.00000000    0.00000000
    8    0.01924185   -0.93086638    5.48765992  -8083.37479641 8783.12019500 -909.91547390      0.00000000    0.00000000    0.00000000
    1   -0.12691015    0.02987562    5.72341492      0.00000000    0.00000000    0.00000000      0.00000000    0.00000000    0.00000000
    1   -0.00636715   -1.80322238    5.97582692      0.00000000    0.00000000    0.00000000      0.00000000    0.00000000    0.00000000
    8    2.68697956    5.45345453   -7.31210962     -0.69190298    0.81605720    2.63113238      0.00000000    0.00000000    0.00000000
    1    3.40952156    5.99695053    7.26067838      0.00000000    0.00000000    0.00000000      0.00000000    0.00000000    0.00000000
    1    2.36540856    4.50863253   -7.37431962      0.00000000    0.00000000    0.00000000      0.00000000    0.00000000    0.00000000
    8   -0.12220763    7.11670528    2.96067598  -3969.72996775**************-7691.68933816      0.00000000    0.00000000    0.00000000
    1   -0.69263163    7.42132028    3.72342998      0.00000000    0.00000000    0.00000000      0.00000000    0.00000000    0.00000000
    1   -0.03752563    7.34348428    1.99043498      0.00000000    0.00000000    0.00000000      0.00000000    0.00000000    0.00000000
    8    0.72613232    3.06654627   -2.79574523  10799.75046400 3674.68064053 3770.52083715      0.00000000    0.00000000    0.00000000
    1   -0.00747568    2.71936627   -2.21157723      0.00000000    0.00000000    0.00000000      0.00000000    0.00000000    0.00000000
    1    1.51032532    3.67613627   -2.67994223      0.00000000    0.00000000    0.00000000      0.00000000    0.00000000    0.00000000
    8    3.13057608    4.02780581   -0.03824779  -6025.08222611**************11765.79517277      0.00000000    0.00000000    0.00000000
    1    3.84246008    4.73002381   -0.04709479      0.00000000    0.00000000    0.00000000      0.00000000    0.00000000    0.00000000
    1    2.13066708    4.01710781   -0.04410279      0.00000000    0.00000000    0.00000000      0.00000000    0.00000000    0.00000000
    8   -0.95702303   -4.97150275    0.97296536   -263.50752350   -5.90143309  -65.82382053      0.00000000    0.00000000    0.00000000
    1   -1.11187603   -4.29589975    1.69376236      0.00000000    0.00000000    0.00000000      0.00000000    0.00000000    0.00000000
    1   -0.97106703   -4.97259875   -0.02691864      0.00000000    0.00000000    0.00000000      0.00000000    0.00000000    0.00000000
    8   -5.66685267   -6.65593846    2.75223352     -3.46008848    0.89587137    1.99206489      0.00000000    0.00000000    0.00000000
    1   -6.21229867   -7.48989046    2.83576652      0.00000000    0.00000000    0.00000000      0.00000000    0.00000000    0.00000000
    1   -5.84658367   -5.67274146    2.78367652      0.00000000    0.00000000    0.00000000      0.00000000    0.00000000    0.00000000
    8   -2.46302053    2.07811372   -0.34416767    -16.96268767   28.32693650    8.03185363      0.00000000    0.00000000    0.00000000
    1   -2.36272853    1.62461572   -1.22974567      0.00000000    0.00000000    0.00000000      0.00000000    0.00000000    0.00000000
    1   -2.82438753    2.95261472   -0.02070467      0.00000000    0.00000000    0.00000000      0.00000000    0.00000000    0.00000000
    8    5.71352050    7.36983224   -1.60357068     -3.35420705    6.27509596   -5.69116032      0.00000000    0.00000000    0.00000000
    1    6.38878250    7.34916524   -2.34083768      0.00000000    0.00000000    0.00000000      0.00000000    0.00000000    0.00000000
    1    5.27105950   -6.92225876   -1.05306268      0.00000000    0.00000000    0.00000000      0.00000000    0.00000000    0.00000000
    8    0.14992772    3.55040298    4.57717952      0.07952965    1.29970152    1.36757806      0.00000000    0.00000000    0.00000000
    1   -0.00114428    4.52230398    4.39675752      0.00000000    0.00000000    0.00000000      0.00000000    0.00000000    0.00000000
    1   -0.03552228    2.69254198    4.09796152      0.00000000    0.00000000    0.00000000      0.00000000    0.00000000    0.00000000
    8    5.40073110    2.27514444    6.48620389     -2.88515634   -1.10264773    3.51360239      0.00000000    0.00000000    0.00000000
    1    5.41717510    3.00843244    7.16589889      0.00000000    0.00000000    0.00000000      0.00000000    0.00000000    0.00000000
    1    5.05777810    1.33655244    6.44886189      0.00000000    0.00000000    0.00000000      0.00000000    0.00000000    0.00000000
    8   -1.85422219    4.85526665    1.41616324  -1152.09271030  286.02508288  -76.56040960      0.00000000    0.00000000    0.00000000
    1   -2.20537419    4.09735865    1.96592124      0.00000000    0.00000000    0.00000000      0.00000000    0.00000000    0.00000000
    1   -1.04540119    5.02013265    0.85172224      0.00000000    0.00000000    0.00000000      0.00000000    0.00000000    0.00000000
    8    1.06749927   -2.16287220    5.56869105  15013.4060698324030.4873869650492.26311551      0.00000000    0.00000000    0.00000000
    1    0.73985927   -1.78083920    6.43279105      0.00000000    0.00000000    0.00000000      0.00000000    0.00000000    0.00000000
    1    0.93164727   -1.96599920    4.59773705      0.00000000    0.00000000    0.00000000      0.00000000    0.00000000    0.00000000
    8   -6.17803726   -4.96066296   -0.42374224  36983.9879847838887.28724107**************      0.00000000    0.00000000    0.00000000
    1   -7.11160626   -4.84878296   -0.08330524      0.00000000    0.00000000    0.00000000      0.00000000    0.00000000    0.00000000
    1   -5.75528726   -5.26821396   -1.27618724      0.00000000    0.00000000    0.00000000      0.00000000    0.00000000    0.00000000
    8   -4.04940309   -4.12894314    0.60547930  ************** 3613.9484143842930.79339594      0.00000000    0.00000000    0.00000000
    1   -3.82420909   -3.73334014    1.49584530      0.00000000    0.00000000    0.00000000      0.00000000    0.00000000    0.00000000
    1   -3.75795809   -4.92738314    0.07867830      0.00000000    0.00000000    0.00000000      0.00000000    0.00000000    0.00000000
    8   -0.57688985   -4.39606842    4.77596530   -317.67952166 -281.81383017   92.41162802      0.00000000    0.00000000    0.00000000
    1   -1.49701885   -4.78435942    4.72537930      0.00000000    0.00000000    0.00000000      0.00000000    0.00000000    0.00000000
    1    0.01865115   -3.87522042    4.16439730      0.00000000    0.00000000    0.00000000      0.00000000    0.00000000    0.00000000
    8    6.35564784    5.62205554    0.62639106  -4309.89502212-1845.18454491 1810.44678230      0.00000000    0.00000000    0.00000000
    1    6.22291184    6.40152454    0.01420106      0.00000000    0.00000000    0.00000000      0.00000000    0.00000000    0.00000000
    1    6.53067784    4.64355054    0.51749006      0.00000000    0.00000000    0.00000000      0.00000000    0.00000000    0.00000000
    8   -1.45110079    1.30566736   -5.81530071     -3.17468819   22.01016362   -1.92306847      0.00000000    0.00000000    0.00000000
    1   -2.31101079    0.96369936   -5.43638071      0.00000000    0.00000000    0.00000000      0.00000000    0.00000000    0.00000000
    1   -0.60869079    0.89902036   -6.16878471      0.00000000    0.00000000    0.00000000      0.00000000    0.00000000    0.00000000
    8   -0.97604227    0.75941687    5.70509138  **************-1601.57318318-7555.44887481      0.00000000    0.00000000    0.00000000
    1   -1.37282127    1.64025887    5.44692338      0.00000000    0.00000000    0.00000000      0.00000000    0.00000000    0.00000000
    1   -1.23900927   -0.00193613    6.29767638      0.00000000    0.00000000    0.00000000      0.00000000    0.00000000    0.00000000
    8    2.75492095   -2.63939216   -6.02455072      6.27191310   -2.63645459   10.64093905      0.00000000    0.00000000    0.00000000
    1    3.74740295   -2.61133916   -6.14354272      0.00000000    0.00000000    0.00000000      0.00000000    0.00000000    0.00000000
    1    2.12589495   -2.79204916   -5.26232472      0.00000000    0.00000000    0.00000000      0.00000000    0.00000000    0.00000000
    8    0.72963084   -1.30113001   -1.40991707    346.73689120 -350.71371915 -194.58691378      0.00000000    0.00000000    0.00000000
    1    0.00013384   -0.81527001   -1.89131107      0.00000000    0.00000000    0.00000000      0.00000000    0.00000000    0.00000000
    1    1.08909284   -1.31741301   -0.47691707      0.00000000    0.00000000    0.00000000      0.00000000    0.00000000    0.00000000
    8    6.43149888   -3.98958066    2.98231433      3.16543652    2.64102931    4.90955696      0.00000000    0.00000000    0.00000000
    1    6.64713288   -4.60170766    3.74308333      0.00000000    0.00000000    0.00000000      0.00000000    0.00000000    0.00000000
    1    5.68941688   -3.35924666    2.75436633      0.00000000    0.00000000    0.00000000      0.00000000    0.00000000    0.00000000
    8    1.44074960    7.41737218   -2.31865347     -0.56962282    2.34259155  -10.57601403      0.00000000    0.00000000    0.00000000
    1    1.81921260    6.49177418   -2.31963747      0.00000000    0.00000000    0.00000000      0.00000000    0.00000000    0.00000000
    1    0.52552360   -7.17974982   -2.32290147      0.00000000    0.00000000    0.00000000      0.00000000    0.00000000    0.00000000
    8    0.03774394   -6.42902514    3.27063014   3965.6876470336059.82200601 7699.11998194      0.00000000    0.00000000    0.00000000
    1    0.17084194   -7.38740514    3.01812614      0.00000000    0.00000000    0.00000000      0.00000000    0.00000000    0.00000000
    1    0.35214694   -5.82855614    4.00585514      0.00000000    0.00000000    0.00000000      0.00000000    0.00000000    0.00000000
    8   -5.79340630    3.39619493    0.32237908     -1.77579300    1.93805145   -3.73649707      0.00000000    0.00000000    0.00000000