 BEGIN_INFO
   #
   # This is a XCRYSDEN-Structure-File
   # aimed for Visualization of Fermi Surface
   #
   # Case: Tight-binding calculation
   #
   # Launch as: xcrysden --xsf HICOLM.XSF
   #
 END_INFO
 # estrutura final
CRYSTAL
PRIMVEC
      15.00000000       0.00000000       0.00000000
       0.00000000      15.00000000       0.00000000
       0.00000000       0.00000000      15.00000000
PRIMCOORD
  306    1
    6   -7.49368112    7.49999986   -7.40000014      0.00000000    0.00000000    0.00000000      0.00000000    0.00000000    0.00000000
    6   -6.16000112    7.49999986   -7.40000014      0.00000000    0.00000000    0.00000000      0.00000000    0.00000000    0.00000000
    1    6.96131888    6.55602986    7.39999986     -0.02432035   -0.05842759    0.00388396      0.00000000    0.00000000    0.00000000
    1    6.96131888   -6.55603014   -7.45291786     -0.02693521    0.00234757    0.04444130      0.00000000    0.00000000    0.00000000
    1   -5.61500112   -6.55603014    7.39999986      0.03502348   -0.01285262    0.04161366      0.00000000    0.00000000    0.00000000
    1   -5.61500112    6.55602986   -7.34708242     -0.07628994    0.21411990    0.04965238      0.00000000    0.00000000    0.00000000
    8    4.48672224    6.57851268   -4.33820577      2.67476247    7.46998260    1.89958010      0.00000000    0.00000000    0.00000000
    1    4.04608024    7.28525068   -3.78474177      0.00000000    0.00000000    0.00000000      0.00000000    0.00000000    0.00000000
    1    5.39338824    6.43734568   -4.73569377      0.00000000    0.00000000    0.00000000      0.00000000    0.00000000    0.00000000
    8   -0.96842270   -1.13175838   -6.54714384      4.62362431  -23.32821688   -5.66281255      0.00000000    0.00000000    0.00000000
    1   -1.78185970   -1.54866338   -6.95270284      0.00000000    0.00000000    0.00000000      0.00000000    0.00000000    0.00000000
    1   -0.10590370   -1.46216038   -6.16391784      0.00000000    0.00000000    0.00000000      0.00000000    0.00000000    0.00000000
    8   -7.16195032   -2.53122101   -2.07947918     -3.65142369   -0.45155420   -0.31180646      0.00000000    0.00000000    0.00000000
    1   -6.55478032   -2.54792001   -1.28510418      0.00000000    0.00000000    0.00000000      0.00000000    0.00000000    0.00000000
    1    7.33512168   -1.83075301   -2.58581218      0.00000000    0.00000000    0.00000000      0.00000000    0.00000000    0.00000000
    8    3.28678385   -3.67768888    4.72518304     44.28978522  -14.90651507    2.90544265      0.00000000    0.00000000    0.00000000
    1    3.59624385   -3.43672688    5.64504104      0.00000000    0.00000000    0.00000000      0.00000000    0.00000000    0.00000000
    1    2.54969585   -4.23008088    4.33591204      0.00000000    0.00000000    0.00000000      0.00000000    0.00000000    0.00000000
    8    6.79943594   -4.92502158   -3.40201708      2.10440005   -3.17803237   -1.56647075      0.00000000    0.00000000    0.00000000
    1    6.54326594   -4.92402258   -2.43540308      0.00000000    0.00000000    0.00000000      0.00000000    0.00000000    0.00000000
    1    7.05877194   -4.23539058   -4.07812308      0.00000000    0.00000000    0.00000000      0.00000000    0.00000000    0.00000000
    8   -6.65021448   -2.31517206    1.23788428     12.59573309   -8.77868082    8.25763268      0.00000000    0.00000000    0.00000000
    1   -6.23612748   -2.69191106    2.06647728      0.00000000    0.00000000    0.00000000      0.00000000    0.00000000    0.00000000
    1   -6.34227448   -1.74884606    0.47341428      0.00000000    0.00000000    0.00000000      0.00000000    0.00000000    0.00000000
    8   -0.06618750    6.60833428    6.37639444     -1.14952565    0.16801993    0.62508171      0.00000000    0.00000000    0.00000000
    1    0.43539750    7.47280828    6.34378244      0.00000000    0.00000000    0.00000000      0.00000000    0.00000000    0.00000000
    1    0.02848450    5.73970828    6.86269944      0.00000000    0.00000000    0.00000000      0.00000000    0.00000000    0.00000000
    8   -7.21441690    1.20977993    3.92375842   -112.76987111  172.76394706   26.07357384      0.00000000    0.00000000    0.00000000
    1   -6.84121090    2.03836093    4.34105842      0.00000000    0.00000000    0.00000000      0.00000000    0.00000000    0.00000000
    1   -6.86805190    0.29915593    3.69845542      0.00000000    0.00000000    0.00000000      0.00000000    0.00000000    0.00000000
    8   -6.40906964    0.06221105   -5.62972143   1789.8619442418520.18749743 2782.25255496      0.00000000    0.00000000    0.00000000
    1   -7.40839964    0.04265505   -5.59933843      0.00000000    0.00000000    0.00000000      0.00000000    0.00000000    0.00000000
    1   -5.66810564    0.01993205   -4.95953343      0.00000000    0.00000000    0.00000000      0.00000000    0.00000000    0.00000000
    8    4.13889073   -2.36189098   -1.61060740      2.63822330   -9.87682190   -0.41654193      0.00000000    0.00000000    0.00000000
    1    5.00937873   -2.84199698   -1.50236440      0.00000000    0.00000000    0.00000000      0.00000000    0.00000000    0.00000000
    1    3.17755173   -2.62500798   -1.69161440      0.00000000    0.00000000    0.00000000      0.00000000    0.00000000    0.00000000
    8   -4.22392660    2.92046630   -2.75598862      0.22175130   -0.20672087    0.23051099      0.00000000    0.00000000    0.00000000
    1   -3.75387860    3.62918330   -3.28205062      0.00000000    0.00000000    0.00000000      0.00000000    0.00000000    0.00000000
    1   -5.02208760    2.33369330   -2.89238162      0.00000000    0.00000000    0.00000000      0.00000000    0.00000000    0.00000000
    8   -3.35193664   -4.23844437   -0.70070544  16039.67441941-2506.40649147**************      0.00000000    0.00000000    0.00000000
    1   -3.93536564   -3.48928737   -1.01429944      0.00000000    0.00000000    0.00000000      0.00000000    0.00000000    0.00000000
    1   -2.58144664   -4.33475837   -0.07059844      0.00000000    0.00000000    0.00000000      0.00000000    0.00000000    0.00000000
    8   -0.74465836    2.56665936   -3.30973980  -9856.17974509-3336.66145610-3442.55937619      0.00000000    0.00000000    0.00000000
    1   -0.00559936    1.90764336   -3.44922580      0.00000000    0.00000000    0.00000000      0.00000000    0.00000000    0.00000000
    1   -0.80856736    3.53789936   -3.08044880      0.00000000    0.00000000    0.00000000      0.00000000    0.00000000    0.00000000
    8    6.90769595    0.97188835    1.33031662    167.82126743  342.23075409 -165.35913981      0.00000000    0.00000000    0.00000000
    1    6.36560495    1.81017335    1.38846062      0.00000000    0.00000000    0.00000000      0.00000000    0.00000000    0.00000000
    1    6.71391195   -0.00618065    1.25418362      0.00000000    0.00000000    0.00000000      0.00000000    0.00000000    0.00000000
    8    1.49730047   -4.43507511    7.30674716      7.28413096   -0.26789627  -16.03975780      0.00000000    0.00000000    0.00000000
    1    1.85817847   -5.22129511    6.80515816      0.00000000    0.00000000    0.00000000      0.00000000    0.00000000    0.00000000
    1    0.70742347   -4.25718511   -7.10638184      0.00000000    0.00000000    0.00000000      0.00000000    0.00000000    0.00000000
    8    0.59273820    5.54322087   -4.80858830  16596.68989456**************-2136.50695113      0.00000000    0.00000000    0.00000000
    1    0.02994020    6.36978987   -4.81157830      0.00000000    0.00000000    0.00000000      0.00000000    0.00000000    0.00000000
    1    1.57161420    5.33946587   -4.82452030      0.00000000    0.00000000    0.00000000      0.00000000    0.00000000    0.00000000
    8    2.31099089   -0.17835846   -7.16729370     12.52789366  -48.47726138  -15.80052961      0.00000000    0.00000000    0.00000000
    1    2.74357089    0.00111354    6.94917330      0.00000000    0.00000000    0.00000000      0.00000000    0.00000000    0.00000000
    1    1.41781989   -0.00036146   -6.75434170      0.00000000    0.00000000    0.00000000      0.00000000    0.00000000    0.00000000
    8    6.82372784    1.52527515   -3.09636959      5.58343457    3.08578843   -0.89340687      0.00000000    0.00000000    0.00000000
    1    6.63764084    2.50673415   -3.14192959      0.00000000    0.00000000    0.00000000      0.00000000    0.00000000    0.00000000
    1   -7.36133816    0.95027915   -3.02405759      0.00000000    0.00000000    0.00000000      0.00000000    0.00000000    0.00000000
    8    3.27648432    0.05911017   -0.58408524  **************-8410.05969101**************      0.00000000    0.00000000    0.00000000
    1    2.43648032   -0.02479083   -0.04806224      0.00000000    0.00000000    0.00000000      0.00000000    0.00000000    0.00000000
    1    4.18526632    0.45085217   -0.44049224      0.00000000    0.00000000    0.00000000      0.00000000    0.00000000    0.00000000
    8    2.62695615    2.99181098    2.43869454      6.17669671   -5.72037027   26.68443030      0.00000000    0.00000000    0.00000000
    1    2.53584115    3.96249798    2.66102554      0.00000000    0.00000000    0.00000000      0.00000000    0.00000000    0.00000000
    1    2.30367815    2.13063198    2.83090454      0.00000000    0.00000000    0.00000000      0.00000000    0.00000000    0.00000000
    8   -2.16545192   -5.47739360   -2.77048136      6.67562389   -7.52380788  -10.45096706      0.00000000    0.00000000    0.00000000
    1   -3.11366392   -5.78521160   -2.84864536      0.00000000    0.00000000    0.00000000      0.00000000    0.00000000    0.00000000
    1   -1.27868192   -5.91214860   -2.61365436      0.00000000    0.00000000    0.00000000      0.00000000    0.00000000    0.00000000
    8   -0.57895951   -1.20938005    0.74447123  -9347.04632054-6168.61166427 2169.33489609      0.00000000    0.00000000    0.00000000
    1   -1.42905551   -0.98238505    1.21963223      0.00000000    0.00000000    0.00000000      0.00000000    0.00000000    0.00000000
    1   -0.01378551   -2.02666805    0.63228523      0.00000000    0.00000000    0.00000000      0.00000000    0.00000000    0.00000000
    8    1.62251253    2.99695039   -0.02038671  -2334.34191463-1598.40260114   -1.25857338      0.00000000    0.00000000    0.00000000
    1    2.59057353    2.74892839   -0.05657471      0.00000000    0.00000000    0.00000000      0.00000000    0.00000000    0.00000000
    1    1.09919253    3.84788639    0.02445029      0.00000000    0.00000000    0.00000000      0.00000000    0.00000000    0.00000000
    8   -5.39555241   -0.12455724    6.76932311    344.77638938 -187.52649924    6.32149453      0.00000000    0.00000000    0.00000000
    1   -6.38628141    0.00238476    6.81735411      0.00000000    0.00000000    0.00000000      0.00000000    0.00000000    0.00000000
    1   -4.77168741   -0.90478024    6.72446811      0.00000000    0.00000000    0.00000000      0.00000000    0.00000000    0.00000000
    8   -7.14813171    6.26276809   -0.00365829   4156.86965018 1768.60887526-1746.14427180      0.00000000    0.00000000    0.00000000
    1    7.09142629    5.61340609    0.00114871      0.00000000    0.00000000    0.00000000      0.00000000    0.00000000    0.00000000
    1   -7.05224571    7.25814309   -0.00465929      0.00000000    0.00000000    0.00000000      0.00000000    0.00000000    0.00000000
    8    0.75995723   -0.31491134    0.44461892  **************30606.28498804-8371.99099652      0.00000000    0.00000000    0.00000000
    1    0.16455623    0.48564366    0.51227792      0.00000000    0.00000000    0.00000000      0.00000000    0.00000000    0.00000000
    1    1.72744123   -0.47746434    0.25092492      0.00000000    0.00000000    0.00000000      0.00000000    0.00000000    0.00000000
    8   -3.54173322    6.98697090   -5.22757154     -0.12343177   -0.17717010   -0.25158991      0.00000000    0.00000000    0.00000000
    1   -2.86528722   -7.28287510   -5.13133054      0.00000000    0.00000000    0.00000000      0.00000000    0.00000000    0.00000000
    1   -4.48311922    6.83435990   -4.92679054      0.00000000    0.00000000    0.00000000      0.00000000    0.00000000    0.00000000
    8    2.27927904    2.05258409   -6.16486074     -1.93998566   49.66665000   21.92668204      0.00000000    0.00000000    0.00000000
    1    2.94097304    1.86478509   -6.89071174      0.00000000    0.00000000    0.00000000      0.00000000    0.00000000    0.00000000
    1    1.35480404    1.74660209   -5.93750974      0.00000000    0.00000000    0.00000000      0.00000000    0.00000000    0.00000000
    8    4.10598002    3.86094580   -4.50423418     -0.50246674   -9.56561787    0.75516374      0.00000000    0.00000000    0.00000000
    1    4.25278002    3.84473580   -5.49325018      0.00000000    0.00000000    0.00000000      0.00000000    0.00000000    0.00000000
    1    4.04752702    3.17976480   -3.77447918      0.00000000    0.00000000    0.00000000      0.00000000    0.00000000    0.00000000
    8    1.84167728    7.09252662    0.34694304      0.47851755   -0.13320572   13.12662718      0.00000000    0.00000000    0.00000000
    1    2.81358428    7.27659862    0.20037704      0.00000000    0.00000000    0.00000000      0.00000000    0.00000000    0.00000000
    1    0.99347628   -7.38074838    0.29142304      0.00000000    0.00000000    0.00000000      0.00000000    0.00000000    0.00000000
    8   -5.20352290   -5.31730058   -4.56284044     -0.12875786    0.41988825    0.32344092      0.00000000    0.00000000    0.00000000
    1   -5.65418790   -5.90594258   -3.89174544      0.00000000    0.00000000    0.00000000      0.00000000    0.00000000    0.00000000
    1   -5.49890990   -4.66492658   -5.26078044      0.00000000    0.00000000    0.00000000      0.00000000    0.00000000    0.00000000
    8   -4.83937747    0.69270730   -0.27101618  -9839.3072673810501.31404883-2209.17087526      0.00000000    0.00000000    0.00000000
    1   -4.18901747   -0.01816970   -0.00333818      0.00000000    0.00000000    0.00000000      0.00000000    0.00000000    0.00000000
    1   -5.77389647    0.94432430   -0.01935918      0.00000000    0.00000000    0.00000000      0.00000000    0.00000000    0.00000000
    8   -4.63753914   -1.95812612   -3.16513094      5.99095227    0.44112135   -2.34129260      0.00000000    0.00000000    0.00000000
    1   -3.72659914   -2.30675212   -3.38561794      0.00000000    0.00000000    0.00000000      0.00000000    0.00000000    0.00000000
    1   -5.05021914   -1.05692712   -3.03283194      0.00000000    0.00000000    0.00000000      0.00000000    0.00000000    0.00000000
    8    3.87519752   -4.88943036   -3.36550898     -4.24746732   -1.15142380   -0.39493629      0.00000000    0.00000000    0.00000000
    1    3.13193252   -5.15981736   -2.75361498      0.00000000    0.00000000    0.00000000      0.00000000    0.00000000    0.00000000
    1    4.15621452   -4.04859536   -3.82810198      0.00000000    0.00000000    0.00000000      0.00000000    0.00000000    0.00000000
    8    0.60552739    0.13360274   -2.91683473     -0.01610408  291.27348181 -426.21399340      0.00000000    0.00000000    0.00000000
    1    0.54427739   -0.00674926   -1.92864573      0.00000000    0.00000000    0.00000000      0.00000000    0.00000000    0.00000000
    1    0.00216339   -0.00608726   -3.70194873      0.00000000    0.00000000    0.00000000      0.00000000    0.00000000    0.00000000
    8    4.74426049   -5.45046922    1.23972547     -4.38017260   -3.55252991   -4.31241096      0.00000000    0.00000000    0.00000000
    1    5.41191949   -5.18392222    0.54463447      0.00000000    0.00000000    0.00000000      0.00000000    0.00000000    0.00000000
    1    4.54446449   -6.27722922    1.76557247      0.00000000    0.00000000    0.00000000      0.00000000    0.00000000    0.00000000
    8   -0.39883723    6.71202249   -4.68098726  **************19559.62931447 2136.26941851      0.00000000    0.00000000    0.00000000
    1   -0.04359223    6.31523549   -5.52734826      0.00000000    0.00000000    0.00000000      0.00000000    0.00000000    0.00000000
    1   -0.00755423    7.04598749   -3.82347226      0.00000000    0.00000000    0.00000000      0.00000000    0.00000000    0.00000000
    8   -4.94699674    4.00489528    3.01114062      2.00592567    0.82862431    4.43066367      0.00000000    0.00000000    0.00000000
    1   -4.88090574    5.00144928    2.96134862      0.00000000    0.00000000    0.00000000      0.00000000    0.00000000    0.00000000
    1   -4.51916674    3.28185328    3.55348562      0.00000000    0.00000000    0.00000000      0.00000000    0.00000000    0.00000000
    8   -3.41768809   -6.97854916    0.05104203   -190.82106364  215.32167629 -838.61495736      0.00000000    0.00000000    0.00000000
    1   -2.56188309   -7.03021916   -0.46363897      0.00000000    0.00000000    0.00000000      0.00000000    0.00000000    0.00000000
    1   -4.33699209   -7.36098116   -0.04164797      0.00000000    0.00000000    0.00000000      0.00000000    0.00000000    0.00000000
    8    3.03924342   -6.56092744   -6.06646180     -0.90162710    1.55271361   -1.72971087      0.00000000    0.00000000    0.00000000
    1    2.12814942   -6.97176344   -6.03344180      0.00000000    0.00000000    0.00000000      0.00000000    0.00000000    0.00000000
    1    3.41697342   -5.64007644   -5.96992880      0.00000000    0.00000000    0.00000000      0.00000000    0.00000000    0.00000000
    8   -0.07748347   -5.67017087   -5.98987519    -11.46795941   -6.92159270   11.33109173      0.00000000    0.00000000    0.00000000
    1   -0.69466947   -6.19021687   -6.58029919      0.00000000    0.00000000    0.00000000      0.00000000    0.00000000    0.00000000
    1    0.01496753   -5.51307587   -5.00664619      0.00000000    0.00000000    0.00000000      0.00000000    0.00000000    0.00000000
    8   -4.94522914    6.05357146   -2.33320915      0.27486485    0.52775729   -0.10365910      0.00000000    0.00000000    0.00000000
    1   -3.95530414    6.19291246   -2.30872415      0.00000000    0.00000000    0.00000000      0.00000000    0.00000000    0.00000000
    1   -5.75444614    6.64104546   -2.33622815      0.00000000    0.00000000    0.00000000      0.00000000    0.00000000    0.00000000
    8   -6.55903741   -1.48886802   -5.86150889  -1790.05074288**************-2763.75977181      0.00000000    0.00000000    0.00000000
    1   -5.57050041   -1.53059902   -5.71652789      0.00000000    0.00000000    0.00000000      0.00000000    0.00000000    0.00000000
    1   -7.36749341   -1.38884902   -5.28154189      0.00000000    0.00000000    0.00000000      0.00000000    0.00000000    0.00000000
    8    2.50795972    7.18537349    4.57177617      3.03184098   -0.09648772    0.77240914      0.00000000    0.00000000    0.00000000
    1    3.42623472   -7.41916751    4.59048017      0.00000000    0.00000000    0.00000000      0.00000000    0.00000000    0.00000000
    1    2.12235772    6.26302349    4.54835317      0.00000000    0.00000000    0.00000000      0.00000000    0.00000000    0.00000000
    8    3.94809455    0.35643250    4.13444808     -3.78686395    0.79497148    2.00674925      0.00000000    0.00000000    0.00000000
    1    4.87478655    0.06110550    3.90208708      0.00000000    0.00000000    0.00000000      0.00000000    0.00000000    0.00000000
    1    3.06253555   -0.08937950    4.26484508      0.00000000    0.00000000    0.00000000      0.00000000    0.00000000    0.00000000
    8   -2.18856710    4.14835038   -6.51089552     -0.40171350    2.03872623   -0.59852330      0.00000000    0.00000000    0.00000000
    1   -1.25137810    4.00838338   -6.83035152      0.00000000    0.00000000    0.00000000      0.00000000    0.00000000    0.00000000
    1   -2.62254510    4.42347138   -5.65302652      0.00000000    0.00000000    0.00000000      0.00000000    0.00000000    0.00000000
    8    0.01525971   -0.92658033    5.48716573  -7809.56944298 8330.00099242-1047.17298577      0.00000000    0.00000000    0.00000000
    1   -0.13089229    0.03416167    5.72292073      0.00000000    0.00000000    0.00000000      0.00000000    0.00000000    0.00000000
    1   -0.01034929   -1.79893633    5.97533273      0.00000000    0.00000000    0.00000000      0.00000000    0.00000000    0.00000000
    8    2.68697876    5.45345538   -7.31210777     -0.67429391    0.81670386    2.60861298      0.00000000    0.00000000    0.00000000
    1    3.40952076    5.99695138    7.26068023      0.00000000    0.00000000    0.00000000      0.00000000    0.00000000    0.00000000
    1    2.36540776    4.50863338   -7.37431777      0.00000000    0.00000000    0.00000000      0.00000000    0.00000000    0.00000000
    8   -0.12392786    7.10105966    2.95734207  -3007.45034976**************-5827.12265551      0.00000000    0.00000000    0.00000000
    1   -0.69435186    7.40567466    3.72009607      0.00000000    0.00000000    0.00000000      0.00000000    0.00000000    0.00000000
    1   -0.03924586    7.32783866    1.98710107      0.00000000    0.00000000    0.00000000      0.00000000    0.00000000    0.00000000
    8    0.73128794    3.06830030   -2.79394611   9854.71731415 3353.37990869 3440.19939443      0.00000000    0.00000000    0.00000000
    1   -0.00232006    2.72112030   -2.20977811      0.00000000    0.00000000    0.00000000      0.00000000    0.00000000    0.00000000
    1    1.51548094    3.67789030   -2.67814311      0.00000000    0.00000000    0.00000000      0.00000000    0.00000000    0.00000000
    8    3.12789121    4.02171159   -0.03279674  -4783.66316186**************10129.80555643      0.00000000    0.00000000    0.00000000
    1    3.83977521    4.72392959   -0.04164374      0.00000000    0.00000000    0.00000000      0.00000000    0.00000000    0.00000000
    1    2.12798221    4.01101359   -0.03865174      0.00000000    0.00000000    0.00000000      0.00000000    0.00000000    0.00000000
    8   -0.95715451   -4.97150645    0.97293276   -263.16865816   -5.84089350  -65.82408816      0.00000000    0.00000000    0.00000000
    1   -1.11200751   -4.29590345    1.69372976      0.00000000    0.00000000    0.00000000      0.00000000    0.00000000    0.00000000
    1   -0.97119851   -4.97260245   -0.02695124      0.00000000    0.00000000    0.00000000      0.00000000    0.00000000    0.00000000
    8   -5.66685357   -6.65593816    2.75223437     -3.44544650    0.89613483    2.00844545      0.00000000    0.00000000    0.00000000
    1   -6.21229957   -7.48989016    2.83576737      0.00000000    0.00000000    0.00000000      0.00000000    0.00000000    0.00000000
    1   -5.84658457   -5.67274116    2.78367737      0.00000000    0.00000000    0.00000000      0.00000000    0.00000000    0.00000000
    8   -2.46302876    2.07812738   -0.34416302    -17.10960186   28.20736671    8.05916123      0.00000000    0.00000000    0.00000000
    1   -2.36273676    1.62462938   -1.22974102      0.00000000    0.00000000    0.00000000      0.00000000    0.00000000    0.00000000
    1   -2.82439576    2.95262838   -0.02070002      0.00000000    0.00000000    0.00000000      0.00000000    0.00000000    0.00000000
    8    5.71351857    7.36983460   -1.60357333     -3.31168356    6.29854420   -5.73123259      0.00000000    0.00000000    0.00000000
    1    6.38878057    7.34916760   -2.34084033      0.00000000    0.00000000    0.00000000      0.00000000    0.00000000    0.00000000
    1    5.27105757   -6.92225640   -1.05306533      0.00000000    0.00000000    0.00000000      0.00000000    0.00000000    0.00000000
    8    0.14992812    3.55040348    4.57718096      0.07808387    1.27773204    1.38104302      0.00000000    0.00000000    0.00000000
    1   -0.00114388    4.52230448    4.39675896      0.00000000    0.00000000    0.00000000      0.00000000    0.00000000    0.00000000
    1   -0.03552188    2.69254248    4.09796296      0.00000000    0.00000000    0.00000000      0.00000000    0.00000000    0.00000000
    8    5.40073000    2.27514414    6.48620494     -2.89496534   -1.09713050    3.51208054      0.00000000    0.00000000    0.00000000
    1    5.41717400    3.00843214    7.16589994      0.00000000    0.00000000    0.00000000      0.00000000    0.00000000    0.00000000
    1    5.05777700    1.33655214    6.44886294      0.00000000    0.00000000    0.00000000      0.00000000    0.00000000    0.00000000
    8   -1.85479649    4.85540970    1.41612524  -1143.11437100  283.56690836  -75.47834244      0.00000000    0.00000000    0.00000000
    1   -2.20594849    4.09750170    1.96588324      0.00000000    0.00000000    0.00000000      0.00000000    0.00000000    0.00000000
    1   -1.04597549    5.02027570    0.85168424      0.00000000    0.00000000    0.00000000      0.00000000    0.00000000    0.00000000
    8    1.07434441   -2.15411081    5.58911634  12639.6065077012776.1119205033691.90713564      0.00000000    0.00000000    0.00000000
    1    0.74670441   -1.77207781    6.45321634      0.00000000    0.00000000    0.00000000      0.00000000    0.00000000    0.00000000
    1    0.93849241   -1.95723781    4.61816234      0.00000000    0.00000000    0.00000000      0.00000000    0.00000000    0.00000000
    8   -6.16309200   -4.94494623   -0.43145368  24564.4899571325838.27801021**************      0.00000000    0.00000000    0.00000000
    1   -7.09666100   -4.83306623   -0.09101668      0.00000000    0.00000000    0.00000000      0.00000000    0.00000000    0.00000000
    1   -5.74034200   -5.25249723   -1.28389868      0.00000000    0.00000000    0.00000000      0.00000000    0.00000000    0.00000000
    8   -4.05891282   -4.12743867    0.62332834  ************** 2536.4743748430070.49327819      0.00000000    0.00000000    0.00000000
    1   -3.83371882   -3.73183567    1.51369434      0.00000000    0.00000000    0.00000000      0.00000000    0.00000000    0.00000000
    1   -3.76746782   -4.92587867    0.09652734      0.00000000    0.00000000    0.00000000      0.00000000    0.00000000    0.00000000
    8   -0.57705222   -4.39621207    4.77601475   -332.20622670 -291.38405662  101.86834358      0.00000000    0.00000000    0.00000000
    1   -1.49718122   -4.78450307    4.72542875      0.00000000    0.00000000    0.00000000      0.00000000    0.00000000    0.00000000
    1    0.01848878   -3.87536407    4.16444675      0.00000000    0.00000000    0.00000000      0.00000000    0.00000000    0.00000000
    8    6.35353257    5.62115019    0.62728036  -4153.31694473-1778.09877029 1744.47732869      0.00000000    0.00000000    0.00000000
    1    6.22079657    6.40061919    0.01509036      0.00000000    0.00000000    0.00000000      0.00000000    0.00000000    0.00000000
    1    6.52856257    4.64264519    0.51837936      0.00000000    0.00000000    0.00000000      0.00000000    0.00000000    0.00000000
    8   -1.45110234    1.30567920   -5.81530172     -3.18826743   21.96531592   -2.01149764      0.00000000    0.00000000    0.00000000
    1   -2.31101234    0.96371120   -5.43638172      0.00000000    0.00000000    0.00000000      0.00000000    0.00000000    0.00000000
    1   -0.60869234    0.89903220   -6.16878572      0.00000000    0.00000000    0.00000000      0.00000000    0.00000000    0.00000000
    8   -0.98472236    0.75871279    5.70160357  **************-1233.65461883-6454.74179611      0.00000000    0.00000000    0.00000000
    1   -1.38150136    1.63955479    5.44343557      0.00000000    0.00000000    0.00000000      0.00000000    0.00000000    0.00000000
    1   -1.24768936   -0.00264021    6.29418857      0.00000000    0.00000000    0.00000000      0.00000000    0.00000000    0.00000000
    8    2.75492370   -2.63939336   -6.02454612      6.27324544   -2.63736345   10.64422173      0.00000000    0.00000000    0.00000000
    1    3.74740570   -2.61134036   -6.14353812      0.00000000    0.00000000    0.00000000      0.00000000    0.00000000    0.00000000
    1    2.12589770   -2.79205036   -5.26232012      0.00000000    0.00000000    0.00000000      0.00000000    0.00000000    0.00000000
    8    0.72980541   -1.30130528   -1.41001086    349.61095149 -348.30282846 -179.33619989      0.00000000    0.00000000    0.00000000
    1    0.00030841   -0.81544528   -1.89140486      0.00000000    0.00000000    0.00000000      0.00000000    0.00000000    0.00000000
    1    1.08926741   -1.31758828   -0.47701086      0.00000000    0.00000000    0.00000000      0.00000000    0.00000000    0.00000000
    8    6.43150103   -3.98957936    2.98231618      3.16477729    2.64159422    4.91045648      0.00000000    0.00000000    0.00000000
    1    6.64713503   -4.60170636    3.74308518      0.00000000    0.00000000    0.00000000      0.00000000    0.00000000    0.00000000
    1    5.68941903   -3.35924536    2.75436818      0.00000000    0.00000000    0.00000000      0.00000000    0.00000000    0.00000000
    8    1.44074990    7.41737393   -2.31865877     -0.58896156    2.32215721  -10.61348041      0.00000000    0.00000000    0.00000000
    1    1.81921290    6.49177593   -2.31964277      0.00000000    0.00000000    0.00000000      0.00000000    0.00000000    0.00000000
    1    0.52552390   -7.17974807   -2.32290677      0.00000000    0.00000000    0.00000000      0.00000000    0.00000000    0.00000000
    8    0.03946225   -6.41339615    3.27396743   3003.5678014427309.70341780 5834.47593541      0.00000000    0.00000000    0.00000000
    1    0.17256025   -7.37177615    3.02146343      0.00000000    0.00000000    0.00000000      0.00000000    0.00000000    0.00000000
    1    0.35386525   -5.81292715    4.00919243      0.00000000    0.00000000    0.00000000      0.00000000    0.00000000    0.00000000
    8   -5.79340650    3.39619555    0.32237748     -1.81997056    2.07261063   -3.70356121      0.00000000    0.00000000    0.00000000