 BEGIN_INFO
   #
   # This is a XCRYSDEN-Structure-File
   # aimed for Visualization of Fermi Surface
   #
   # Case: Tight-binding calculation
   #
   # Launch as: xcrysden --xsf HICOLM.XSF
   #
 END_INFO
 # estrutura final
CRYSTAL
PRIMVEC
      15.00000000       0.00000000       0.00000000
       0.00000000      15.00000000       0.00000000
       0.00000000       0.00000000      15.00000000
PRIMCOORD
  306    1
    6   -7.49368120    7.49999985   -7.40000015      0.00000000    0.00000000    0.00000000      0.00000000    0.00000000    0.00000000
    6   -6.16000120    7.49999985   -7.40000015      0.00000000    0.00000000    0.00000000      0.00000000    0.00000000    0.00000000
    1    6.96131880    6.55602985    7.39999985     -0.02432006   -0.05842885    0.00388427      0.00000000    0.00000000    0.00000000
    1    6.96131880   -6.55603015   -7.45291787     -0.02693263    0.00235561    0.04444403      0.00000000    0.00000000    0.00000000
    1   -5.61500120   -6.55603015    7.39999985      0.03502474   -0.01284579    0.04161829      0.00000000    0.00000000    0.00000000
    1   -5.61500120    6.55602985   -7.34708243     -0.07628830    0.21411896    0.04965409      0.00000000    0.00000000    0.00000000
    8    4.48672240    6.57851330   -4.33820562      2.67486235    7.46997886    1.89928491      0.00000000    0.00000000    0.00000000
    1    4.04608040    7.28525130   -3.78474162      0.00000000    0.00000000    0.00000000      0.00000000    0.00000000    0.00000000
    1    5.39338840    6.43734630   -4.73569362      0.00000000    0.00000000    0.00000000      0.00000000    0.00000000    0.00000000
    8   -0.96842225   -1.13176055   -6.54714440      4.62362575  -23.32619240   -5.66285020      0.00000000    0.00000000    0.00000000
    1   -1.78185925   -1.54866555   -6.95270340      0.00000000    0.00000000    0.00000000      0.00000000    0.00000000    0.00000000
    1   -0.10590325   -1.46216255   -6.16391840      0.00000000    0.00000000    0.00000000      0.00000000    0.00000000    0.00000000
    8   -7.16195071   -2.53122121   -2.07947928     -3.65893805   -0.43823597   -0.32160593      0.00000000    0.00000000    0.00000000
    1   -6.55478071   -2.54792021   -1.28510428      0.00000000    0.00000000    0.00000000      0.00000000    0.00000000    0.00000000
    1    7.33512129   -1.83075321   -2.58581228      0.00000000    0.00000000    0.00000000      0.00000000    0.00000000    0.00000000
    8    3.28678837   -3.67769030    4.72518321     44.21283620  -14.84310683    2.94842249      0.00000000    0.00000000    0.00000000
    1    3.59624837   -3.43672830    5.64504121      0.00000000    0.00000000    0.00000000      0.00000000    0.00000000    0.00000000
    1    2.54970037   -4.23008230    4.33591221      0.00000000    0.00000000    0.00000000      0.00000000    0.00000000    0.00000000
    8    6.79943615   -4.92502205   -3.40201730      2.10450933   -3.17802808   -1.56623941      0.00000000    0.00000000    0.00000000
    1    6.54326615   -4.92402305   -2.43540330      0.00000000    0.00000000    0.00000000      0.00000000    0.00000000    0.00000000
    1    7.05877215   -4.23539105   -4.07812330      0.00000000    0.00000000    0.00000000      0.00000000    0.00000000    0.00000000
    8   -6.65021338   -2.31517298    1.23788509     12.58517009   -8.76801918    8.26224041      0.00000000    0.00000000    0.00000000
    1   -6.23612638   -2.69191198    2.06647809      0.00000000    0.00000000    0.00000000      0.00000000    0.00000000    0.00000000
    1   -6.34227338   -1.74884698    0.47341509      0.00000000    0.00000000    0.00000000      0.00000000    0.00000000    0.00000000
    8   -0.06618775    6.60833430    6.37639440     -1.14950981    0.16837837    0.62451275      0.00000000    0.00000000    0.00000000
    1    0.43539725    7.47280830    6.34378240      0.00000000    0.00000000    0.00000000      0.00000000    0.00000000    0.00000000
    1    0.02848425    5.73970830    6.86269940      0.00000000    0.00000000    0.00000000      0.00000000    0.00000000    0.00000000
    8   -7.21442837    1.20979726    3.92376099   -113.30890563  173.47920338   26.11525196      0.00000000    0.00000000    0.00000000
    1   -6.84122237    2.03837826    4.34106099      0.00000000    0.00000000    0.00000000      0.00000000    0.00000000    0.00000000
    1   -6.86806337    0.29917326    3.69845799      0.00000000    0.00000000    0.00000000      0.00000000    0.00000000    0.00000000
    8   -6.40889335    0.06403455   -5.62944763   1735.7851123117960.87564877 2698.67699936      0.00000000    0.00000000    0.00000000
    1   -7.40822335    0.04447855   -5.59906463      0.00000000    0.00000000    0.00000000      0.00000000    0.00000000    0.00000000
    1   -5.66792935    0.02175555   -4.95925963      0.00000000    0.00000000    0.00000000      0.00000000    0.00000000    0.00000000
    8    4.13889102   -2.36189180   -1.61060745      2.65853085   -9.91496316   -0.43464479      0.00000000    0.00000000    0.00000000
    1    5.00937902   -2.84199780   -1.50236445      0.00000000    0.00000000    0.00000000      0.00000000    0.00000000    0.00000000
    1    3.17755202   -2.62500880   -1.69161445      0.00000000    0.00000000    0.00000000      0.00000000    0.00000000    0.00000000
    8   -4.22392650    2.92046625   -2.75598845      0.22121195   -0.20580441    0.22953739      0.00000000    0.00000000    0.00000000
    1   -3.75387850    3.62918325   -3.28205045      0.00000000    0.00000000    0.00000000      0.00000000    0.00000000    0.00000000
    1   -5.02208750    2.33369325   -2.89238145      0.00000000    0.00000000    0.00000000      0.00000000    0.00000000    0.00000000
    8   -3.35037879   -4.23868792   -0.70362360  15144.68578461-2365.83788456**************      0.00000000    0.00000000    0.00000000
    1   -3.93380779   -3.48953092   -1.01721760      0.00000000    0.00000000    0.00000000      0.00000000    0.00000000    0.00000000
    1   -2.57988879   -4.33500192   -0.07351660      0.00000000    0.00000000    0.00000000      0.00000000    0.00000000    0.00000000
    8   -0.74563555    2.56632854   -3.31008108  -9687.33704771-3279.26333157-3383.53604554      0.00000000    0.00000000    0.00000000
    1   -0.00657655    1.90731254   -3.44956708      0.00000000    0.00000000    0.00000000      0.00000000    0.00000000    0.00000000
    1   -0.80954455    3.53756854   -3.08079008      0.00000000    0.00000000    0.00000000      0.00000000    0.00000000    0.00000000
    8    6.90771290    0.97192260    1.33030010    167.83078750  342.04585420 -165.17210811      0.00000000    0.00000000    0.00000000
    1    6.36562190    1.81020760    1.38844410      0.00000000    0.00000000    0.00000000      0.00000000    0.00000000    0.00000000
    1    6.71392890   -0.00614640    1.25416710      0.00000000    0.00000000    0.00000000      0.00000000    0.00000000    0.00000000
    8    1.49730129   -4.43507500    7.30674554      7.28577471   -0.29463065  -16.02959416      0.00000000    0.00000000    0.00000000
    1    1.85817929   -5.22129500    6.80515654      0.00000000    0.00000000    0.00000000      0.00000000    0.00000000    0.00000000
    1    0.70742429   -4.25718500   -7.10638346      0.00000000    0.00000000    0.00000000      0.00000000    0.00000000    0.00000000
    8    0.59436226    5.54130627   -4.80879738  15903.36298148**************-2047.28658078      0.00000000    0.00000000    0.00000000
    1    0.03156426    6.36787527   -4.81178738      0.00000000    0.00000000    0.00000000      0.00000000    0.00000000    0.00000000
    1    1.57323826    5.33755127   -4.82472938      0.00000000    0.00000000    0.00000000      0.00000000    0.00000000    0.00000000
    8    2.31099225   -0.17836339   -7.16729517     12.62404501  -48.52858315  -15.71000653      0.00000000    0.00000000    0.00000000
    1    2.74357225    0.00110861    6.94917183      0.00000000    0.00000000    0.00000000      0.00000000    0.00000000    0.00000000
    1    1.41782125   -0.00036639   -6.75434317      0.00000000    0.00000000    0.00000000      0.00000000    0.00000000    0.00000000
    8    6.82372826    1.52527537   -3.09636968      5.64538833    3.14229999   -0.87674537      0.00000000    0.00000000    0.00000000
    1    6.63764126    2.50673437   -3.14192968      0.00000000    0.00000000    0.00000000      0.00000000    0.00000000    0.00000000
    1   -7.36133774    0.95027937   -3.02405768      0.00000000    0.00000000    0.00000000      0.00000000    0.00000000    0.00000000
    8    3.27473492    0.05829034   -0.58628166  **************-7996.41353960**************      0.00000000    0.00000000    0.00000000
    1    2.43473092   -0.02561066   -0.05025866      0.00000000    0.00000000    0.00000000      0.00000000    0.00000000    0.00000000
    1    4.18351692    0.45003234   -0.44268866      0.00000000    0.00000000    0.00000000      0.00000000    0.00000000    0.00000000
    8    2.62695686    2.99181038    2.43869707      6.15925320   -5.75111270   26.76165763      0.00000000    0.00000000    0.00000000
    1    2.53584186    3.96249738    2.66102807      0.00000000    0.00000000    0.00000000      0.00000000    0.00000000    0.00000000
    1    2.30367886    2.13063138    2.83090707      0.00000000    0.00000000    0.00000000      0.00000000    0.00000000    0.00000000
    8   -2.16545123   -5.47739419   -2.77048243      6.78146047   -7.64195973  -10.63481392      0.00000000    0.00000000    0.00000000
    1   -3.11366323   -5.78521219   -2.84864643      0.00000000    0.00000000    0.00000000      0.00000000    0.00000000    0.00000000
    1   -1.27868123   -5.91214919   -2.61365543      0.00000000    0.00000000    0.00000000      0.00000000    0.00000000    0.00000000
    8   -0.57988706   -1.20999347    0.74468691  -9206.87276979-6102.94693015 2146.02653606      0.00000000    0.00000000    0.00000000
    1   -1.42998306   -0.98299847    1.21984791      0.00000000    0.00000000    0.00000000      0.00000000    0.00000000    0.00000000
    1   -0.01471306   -2.02728147    0.63250091      0.00000000    0.00000000    0.00000000      0.00000000    0.00000000    0.00000000
    8    1.62227834    2.99679003   -0.02038691  -2347.20526503-1605.94855195   -2.69597838      0.00000000    0.00000000    0.00000000
    1    2.59033934    2.74876803   -0.05657491      0.00000000    0.00000000    0.00000000      0.00000000    0.00000000    0.00000000
    1    1.09895834    3.84772603    0.02445009      0.00000000    0.00000000    0.00000000      0.00000000    0.00000000    0.00000000
    8   -5.39551786   -0.12457584    6.76932374    344.60112497 -187.44749010    6.29867941      0.00000000    0.00000000    0.00000000
    1   -6.38624686    0.00236616    6.81735474      0.00000000    0.00000000    0.00000000      0.00000000    0.00000000    0.00000000
    1   -4.77165286   -0.90479884    6.72446874      0.00000000    0.00000000    0.00000000      0.00000000    0.00000000    0.00000000
    8   -7.14771739    6.26294422   -0.00383227   4126.96309437 1755.66532964-1733.55593210      0.00000000    0.00000000    0.00000000
    1    7.09184061    5.61358222    0.00097473      0.00000000    0.00000000    0.00000000      0.00000000    0.00000000    0.00000000
    1   -7.05183139    7.25831922   -0.00483327      0.00000000    0.00000000    0.00000000      0.00000000    0.00000000    0.00000000
    8    0.75848259   -0.31192504    0.44380350  **************29164.42030876-7949.05884859      0.00000000    0.00000000    0.00000000
    1    0.16308159    0.48862996    0.51146250      0.00000000    0.00000000    0.00000000      0.00000000    0.00000000    0.00000000
    1    1.72596659   -0.47447804    0.25010950      0.00000000    0.00000000    0.00000000      0.00000000    0.00000000    0.00000000
    8   -3.54173317    6.98697075   -5.22757165     -0.13274505   -0.17677798   -0.25330604      0.00000000    0.00000000    0.00000000
    1   -2.86528717   -7.28287525   -5.13133065      0.00000000    0.00000000    0.00000000      0.00000000    0.00000000    0.00000000
    1   -4.48311917    6.83435975   -4.92679065      0.00000000    0.00000000    0.00000000      0.00000000    0.00000000    0.00000000
    8    2.27927891    2.05258917   -6.16485844     -1.93792826   49.66701784   21.92672375      0.00000000    0.00000000    0.00000000
    1    2.94097291    1.86479017   -6.89070944      0.00000000    0.00000000    0.00000000      0.00000000    0.00000000    0.00000000
    1    1.35480391    1.74660717   -5.93750744      0.00000000    0.00000000    0.00000000      0.00000000    0.00000000    0.00000000
    8    4.10597995    3.86094500   -4.50423405     -0.50225804   -9.56545114    0.75498230      0.00000000    0.00000000    0.00000000
    1    4.25277995    3.84473500   -5.49325005      0.00000000    0.00000000    0.00000000      0.00000000    0.00000000    0.00000000
    1    4.04752695    3.17976400   -3.77447905      0.00000000    0.00000000    0.00000000      0.00000000    0.00000000    0.00000000
    8    1.84167730    7.09252645    0.34694440      0.47994033   -0.13580408   13.12600759      0.00000000    0.00000000    0.00000000
    1    2.81358430    7.27659845    0.20037840      0.00000000    0.00000000    0.00000000      0.00000000    0.00000000    0.00000000
    1    0.99347630   -7.38074855    0.29142440      0.00000000    0.00000000    0.00000000      0.00000000    0.00000000    0.00000000
    8   -5.20352275   -5.31730055   -4.56284040     -0.12862142    0.42003418    0.32349719      0.00000000    0.00000000    0.00000000
    1   -5.65418775   -5.90594255   -3.89174540      0.00000000    0.00000000    0.00000000      0.00000000    0.00000000    0.00000000
    1   -5.49890975   -4.66492655   -5.26078040      0.00000000    0.00000000    0.00000000      0.00000000    0.00000000    0.00000000
    8   -4.84034978    0.69374518   -0.27123462  -9612.2315768610258.54606028-2158.16690764      0.00000000    0.00000000    0.00000000
    1   -4.18998978   -0.01713182   -0.00355662      0.00000000    0.00000000    0.00000000      0.00000000    0.00000000    0.00000000
    1   -5.77486878    0.94536218   -0.01957762      0.00000000    0.00000000    0.00000000      0.00000000    0.00000000    0.00000000
    8   -4.63753865   -1.95812620   -3.16513115      5.99026576    0.44198618   -2.34215041      0.00000000    0.00000000    0.00000000
    1   -3.72659865   -2.30675220   -3.38561815      0.00000000    0.00000000    0.00000000      0.00000000    0.00000000    0.00000000
    1   -5.05021865   -1.05692720   -3.03283215      0.00000000    0.00000000    0.00000000      0.00000000    0.00000000    0.00000000
    8    3.87519720   -4.88943060   -3.36550905     -4.24744386   -1.15147930   -0.39490219      0.00000000    0.00000000    0.00000000
    1    3.13193220   -5.15981760   -2.75361505      0.00000000    0.00000000    0.00000000      0.00000000    0.00000000    0.00000000
    1    4.15621420   -4.04859560   -3.82810205      0.00000000    0.00000000    0.00000000      0.00000000    0.00000000    0.00000000
    8    0.60552752    0.13363192   -2.91687738     -0.44492847  291.16863840 -425.94128327      0.00000000    0.00000000    0.00000000
    1    0.54427752   -0.00672008   -1.92868838      0.00000000    0.00000000    0.00000000      0.00000000    0.00000000    0.00000000
    1    0.00216352   -0.00605808   -3.70199138      0.00000000    0.00000000    0.00000000      0.00000000    0.00000000    0.00000000
    8    4.74425995   -5.45046945    1.23972508     -4.38499546   -3.55142635   -4.31061474      0.00000000    0.00000000    0.00000000
    1    5.41191895   -5.18392245    0.54463408      0.00000000    0.00000000    0.00000000      0.00000000    0.00000000    0.00000000
    1    4.54446395   -6.27722945    1.76557208      0.00000000    0.00000000    0.00000000      0.00000000    0.00000000    0.00000000
    8   -0.40046164    6.71393660   -4.68077821  **************18742.35569578 2047.06902469      0.00000000    0.00000000    0.00000000
    1   -0.04521664    6.31714960   -5.52713921      0.00000000    0.00000000    0.00000000      0.00000000    0.00000000    0.00000000
    1   -0.00917864    7.04790160   -3.82326321      0.00000000    0.00000000    0.00000000      0.00000000    0.00000000    0.00000000
    8   -4.94699665    4.00489530    3.01114095      2.00591387    0.82865881    4.43065181      0.00000000    0.00000000    0.00000000
    1   -4.88090565    5.00144930    2.96134895      0.00000000    0.00000000    0.00000000      0.00000000    0.00000000    0.00000000
    1   -4.51916665    3.28185330    3.55348595      0.00000000    0.00000000    0.00000000      0.00000000    0.00000000    0.00000000
    8   -3.41770715   -6.97852754    0.05095835   -190.60235958  215.09498323 -837.62537770      0.00000000    0.00000000    0.00000000
    1   -2.56190215   -7.03019754   -0.46372265      0.00000000    0.00000000    0.00000000      0.00000000    0.00000000    0.00000000
    1   -4.33701115   -7.36095954   -0.04173165      0.00000000    0.00000000    0.00000000      0.00000000    0.00000000    0.00000000
    8    3.03924345   -6.56092740   -6.06646200     -0.90156243    1.55275978   -1.72972575      0.00000000    0.00000000    0.00000000
    1    2.12814945   -6.97176340   -6.03344200      0.00000000    0.00000000    0.00000000      0.00000000    0.00000000    0.00000000
    1    3.41697345   -5.64007640   -5.96992900      0.00000000    0.00000000    0.00000000      0.00000000    0.00000000    0.00000000
    8   -0.07748450   -5.67017148   -5.98987415    -11.46228237   -6.89624672   11.31683863      0.00000000    0.00000000    0.00000000
    1   -0.69467050   -6.19021748   -6.58029815      0.00000000    0.00000000    0.00000000      0.00000000    0.00000000    0.00000000
    1    0.01496650   -5.51307648   -5.00664515      0.00000000    0.00000000    0.00000000      0.00000000    0.00000000    0.00000000
    8   -4.94522915    6.05357135   -2.33320917      0.27624842    0.52740823   -0.10530060      0.00000000    0.00000000    0.00000000
    1   -3.95530415    6.19291235   -2.30872417      0.00000000    0.00000000    0.00000000      0.00000000    0.00000000    0.00000000
    1   -5.75444615    6.64104535   -2.33622817      0.00000000    0.00000000    0.00000000      0.00000000    0.00000000    0.00000000
    8   -6.55921370   -1.49069210   -5.86178117  -1735.97074399**************-2680.20533059      0.00000000    0.00000000    0.00000000
    1   -5.57067670   -1.53242310   -5.71680017      0.00000000    0.00000000    0.00000000      0.00000000    0.00000000    0.00000000
    1   -7.36766970   -1.39067310   -5.28181417      0.00000000    0.00000000    0.00000000      0.00000000    0.00000000    0.00000000
    8    2.50795990    7.18537360    4.57177625      3.02154121   -0.09355126    0.76654809      0.00000000    0.00000000    0.00000000
    1    3.42623490   -7.41916740    4.59048025      0.00000000    0.00000000    0.00000000      0.00000000    0.00000000    0.00000000
    1    2.12235790    6.26302360    4.54835325      0.00000000    0.00000000    0.00000000      0.00000000    0.00000000    0.00000000
    8    3.94809416    0.35643275    4.13444830     -3.78701358    0.79519798    2.00839627      0.00000000    0.00000000    0.00000000
    1    4.87478616    0.06110575    3.90208730      0.00000000    0.00000000    0.00000000      0.00000000    0.00000000    0.00000000
    1    3.06253516   -0.08937925    4.26484530      0.00000000    0.00000000    0.00000000      0.00000000    0.00000000    0.00000000
    8   -2.18856725    4.14835055   -6.51089570     -0.40140711    2.03915661   -0.59825623      0.00000000    0.00000000    0.00000000
    1   -1.25137825    4.00838355   -6.83035170      0.00000000    0.00000000    0.00000000      0.00000000    0.00000000    0.00000000
    1   -2.62254525    4.42347155   -5.65302670      0.00000000    0.00000000    0.00000000      0.00000000    0.00000000    0.00000000
    8    0.01448253   -0.92575274    5.48705994  -7734.81736899 8222.71769943-1064.85853037      0.00000000    0.00000000    0.00000000
    1   -0.13166947    0.03498926    5.72281494      0.00000000    0.00000000    0.00000000      0.00000000    0.00000000    0.00000000
    1   -0.01112647   -1.79810874    5.97522694      0.00000000    0.00000000    0.00000000      0.00000000    0.00000000    0.00000000
    8    2.68697860    5.45345555   -7.31210740     -0.67119227    0.81683074    2.60463292      0.00000000    0.00000000    0.00000000
    1    3.40952060    5.99695155    7.26068060      0.00000000    0.00000000    0.00000000      0.00000000    0.00000000    0.00000000
    1    2.36540760    4.50863355   -7.37431740      0.00000000    0.00000000    0.00000000      0.00000000    0.00000000    0.00000000
    8   -0.12422144    7.09838933    2.95677307  -2869.94891395**************-5560.69071310      0.00000000    0.00000000    0.00000000
    1   -0.69464544    7.40300433    3.71952707      0.00000000    0.00000000    0.00000000      0.00000000    0.00000000    0.00000000
    1   -0.03953944    7.32516833    1.98653207      0.00000000    0.00000000    0.00000000      0.00000000    0.00000000    0.00000000
    8    0.73226483    3.06863266   -2.79360524   9685.88340582 3295.97803527 3381.18507349      0.00000000    0.00000000    0.00000000
    1   -0.00134317    2.72145266   -2.20943724      0.00000000    0.00000000    0.00000000      0.00000000    0.00000000    0.00000000
    1    1.51645783    3.67822266   -2.67780224      0.00000000    0.00000000    0.00000000      0.00000000    0.00000000    0.00000000
    8    3.12742340    4.02061082   -0.03179753  -4577.78102732************** 9859.55853088      0.00000000    0.00000000    0.00000000
    1    3.83930740    4.72282882   -0.04064453      0.00000000    0.00000000    0.00000000      0.00000000    0.00000000    0.00000000
    1    2.12751440    4.00991282   -0.03765253      0.00000000    0.00000000    0.00000000      0.00000000    0.00000000    0.00000000
    8   -0.95718079   -4.97150718    0.97292624   -263.09748135   -5.83048733  -65.82102378      0.00000000    0.00000000    0.00000000
    1   -1.11203379   -4.29590418    1.69372324      0.00000000    0.00000000    0.00000000      0.00000000    0.00000000    0.00000000
    1   -0.97122479   -4.97260318   -0.02695776      0.00000000    0.00000000    0.00000000      0.00000000    0.00000000    0.00000000
    8   -5.66685375   -6.65593810    2.75223455     -3.44314470    0.89616918    2.01101163      0.00000000    0.00000000    0.00000000
    1   -6.21229975   -7.48989010    2.83576755      0.00000000    0.00000000    0.00000000      0.00000000    0.00000000    0.00000000
    1   -5.84658475   -5.67274110    2.78367755      0.00000000    0.00000000    0.00000000      0.00000000    0.00000000    0.00000000
    8   -2.46303041    2.07813011   -0.34416209    -17.13767178   28.18570216    8.06450128      0.00000000    0.00000000    0.00000000
    1   -2.36273841    1.62463211   -1.22974009      0.00000000    0.00000000    0.00000000      0.00000000    0.00000000    0.00000000
    1   -2.82439741    2.95263111   -0.02069909      0.00000000    0.00000000    0.00000000      0.00000000    0.00000000    0.00000000
    8    5.71351819    7.36983508   -1.60357386     -3.30234021    6.30371000   -5.73757015      0.00000000    0.00000000    0.00000000
    1    6.38878019    7.34916808   -2.34084086      0.00000000    0.00000000    0.00000000      0.00000000    0.00000000    0.00000000
    1    5.27105719   -6.92225592   -1.05306586      0.00000000    0.00000000    0.00000000      0.00000000    0.00000000    0.00000000
    8    0.14992820    3.55040358    4.57718125      0.07718141    1.27330180    1.38345061      0.00000000    0.00000000    0.00000000
    1   -0.00114380    4.52230458    4.39675925      0.00000000    0.00000000    0.00000000      0.00000000    0.00000000    0.00000000
    1   -0.03552180    2.69254258    4.09796325      0.00000000    0.00000000    0.00000000      0.00000000    0.00000000    0.00000000
    8    5.40072978    2.27514408    6.48620515     -2.89691868   -1.09602399    3.51178183      0.00000000    0.00000000    0.00000000
    1    5.41717378    3.00843208    7.16590015      0.00000000    0.00000000    0.00000000      0.00000000    0.00000000    0.00000000
    1    5.05777678    1.33655208    6.44886315      0.00000000    0.00000000    0.00000000      0.00000000    0.00000000    0.00000000
    8   -1.85491081    4.85543817    1.41611771  -1141.33621054  283.08166931  -75.26373870      0.00000000    0.00000000    0.00000000
    1   -2.20606281    4.09753017    1.96587571      0.00000000    0.00000000    0.00000000      0.00000000    0.00000000    0.00000000
    1   -1.04608981    5.02030417    0.85167671      0.00000000    0.00000000    0.00000000      0.00000000    0.00000000    0.00000000
    8    1.07559169   -2.15290081    5.59238106  12312.1518424311471.5752403531667.69066317      0.00000000    0.00000000    0.00000000
    1    0.74795169   -1.77086781    6.45648106      0.00000000    0.00000000    0.00000000      0.00000000    0.00000000    0.00000000
    1    0.93973969   -1.95602781    4.62142706      0.00000000    0.00000000    0.00000000      0.00000000    0.00000000    0.00000000
    8   -6.16071400   -4.94244490   -0.43268160  23041.7877202824238.46736820**************      0.00000000    0.00000000    0.00000000
    1   -7.09428300   -4.83056490   -0.09224460      0.00000000    0.00000000    0.00000000      0.00000000    0.00000000    0.00000000
    1   -5.73796400   -5.24999590   -1.28512660      0.00000000    0.00000000    0.00000000      0.00000000    0.00000000    0.00000000
    8   -4.06046793   -4.12719216    0.62624905  ************** 2396.1179758128395.02783954      0.00000000    0.00000000    0.00000000
    1   -3.83527393   -3.73158916    1.51661505      0.00000000    0.00000000    0.00000000      0.00000000    0.00000000    0.00000000
    1   -3.76902293   -4.92563216    0.09944805      0.00000000    0.00000000    0.00000000      0.00000000    0.00000000    0.00000000
    8   -0.57708548   -4.39624131    4.77602516   -334.49010491 -292.82988683  103.41974720      0.00000000    0.00000000    0.00000000
    1   -1.49721448   -4.78453231    4.72543916      0.00000000    0.00000000    0.00000000      0.00000000    0.00000000    0.00000000
    1    0.01845552   -3.87539331    4.16445716      0.00000000    0.00000000    0.00000000      0.00000000    0.00000000    0.00000000
    8    6.35311874    5.62097307    0.62745433  -4123.40516005-1765.28274277 1731.87459565      0.00000000    0.00000000    0.00000000
    1    6.22038274    6.40044207    0.01526433      0.00000000    0.00000000    0.00000000      0.00000000    0.00000000    0.00000000
    1    6.52814874    4.64246807    0.51855333      0.00000000    0.00000000    0.00000000      0.00000000    0.00000000    0.00000000
    8   -1.45110266    1.30568156   -5.81530193     -3.19087542   21.95672364   -2.02840027      0.00000000    0.00000000    0.00000000
    1   -2.31101266    0.96371356   -5.43638193      0.00000000    0.00000000    0.00000000      0.00000000    0.00000000    0.00000000
    1   -0.60869266    0.89903456   -6.16878593      0.00000000    0.00000000    0.00000000      0.00000000    0.00000000    0.00000000
    8   -0.98631332    0.75859253    5.70096732  **************-1172.17078052-6272.28855706      0.00000000    0.00000000    0.00000000
    1   -1.38309232    1.63943453    5.44279932      0.00000000    0.00000000    0.00000000      0.00000000    0.00000000    0.00000000
    1   -1.24928032   -0.00276047    6.29355232      0.00000000    0.00000000    0.00000000      0.00000000    0.00000000    0.00000000
    8    2.75492425   -2.63939360   -6.02454520      6.27348725   -2.63756365   10.64481139      0.00000000    0.00000000    0.00000000
    1    3.74740625   -2.61134060   -6.14353720      0.00000000    0.00000000    0.00000000      0.00000000    0.00000000    0.00000000
    1    2.12589825   -2.79205060   -5.26231920      0.00000000    0.00000000    0.00000000      0.00000000    0.00000000    0.00000000
    8    0.72984047   -1.30134019   -1.41002876    350.00386071 -347.83720259 -176.76101977      0.00000000    0.00000000    0.00000000
    1    0.00034347   -0.81548019   -1.89142276      0.00000000    0.00000000    0.00000000      0.00000000    0.00000000    0.00000000
    1    1.08930247   -1.31762319   -0.47702876      0.00000000    0.00000000    0.00000000      0.00000000    0.00000000    0.00000000
    8    6.43150146   -3.98957910    2.98231655      3.16467099    2.64168242    4.91059682      0.00000000    0.00000000    0.00000000
    1    6.64713546   -4.60170610    3.74308555      0.00000000    0.00000000    0.00000000      0.00000000    0.00000000    0.00000000
    1    5.68941946   -3.35924510    2.75436855      0.00000000    0.00000000    0.00000000      0.00000000    0.00000000    0.00000000
    8    1.44074996    7.41737428   -2.31865983     -0.59236042    2.31865275  -10.61998116      0.00000000    0.00000000    0.00000000
    1    1.81921296    6.49177628   -2.31964383      0.00000000    0.00000000    0.00000000      0.00000000    0.00000000    0.00000000
    1    0.52552396   -7.17974772   -2.32290783      0.00000000    0.00000000    0.00000000      0.00000000    0.00000000    0.00000000
    8    0.03975545   -6.41072924    3.27453710   2866.0964902726059.33660679 5568.02550751      0.00000000    0.00000000    0.00000000
    1    0.17285345   -7.36910924    3.02203310      0.00000000    0.00000000    0.00000000      0.00000000    0.00000000    0.00000000
    1    0.35415845   -5.81026024    4.00976210      0.00000000    0.00000000    0.00000000      0.00000000    0.00000000    0.00000000
    8   -5.79340654    3.39619568    0.32237716     -1.82831865    2.09810062   -3.69730486      0.00000000    0.00000000    0.00000000