 BEGIN_INFO
   #
   # This is a XCRYSDEN-Structure-File
   # aimed for Visualization of Fermi Surface
   #
   # Case: Tight-binding calculation
   #
   # Launch as: xcrysden --xsf HICOLM.XSF
   #
 END_INFO
 # estrutura final
CRYSTAL
PRIMVEC
      15.00000000       0.00000000       0.00000000
       0.00000000      15.00000000       0.00000000
       0.00000000       0.00000000      15.00000000
PRIMCOORD
  306    1
    6   -7.49368013    7.49999969   -7.39999960     -0.46497000   -0.14609661   -0.76833013      0.00000000    0.00000000    0.00000000
    6   -6.16000013    7.49999969   -7.39999960     -2.25818661    0.30575057   -0.45921622      0.00000000    0.00000000    0.00000000
    1    6.96131987    6.55602969    7.40000040      0.21905237    0.65110699    0.50484979      0.00000000    0.00000000    0.00000000
    1    6.96131987   -6.55603031   -7.45291732     -0.30912494   -0.30351468    0.75110451      0.00000000    0.00000000    0.00000000
    1   -5.61500013   -6.55603031    7.40000040      0.80289629   -0.96789922    0.52397634      0.00000000    0.00000000    0.00000000
    1   -5.61500013    6.55602969   -7.34708188      1.61575933   -0.48903056    0.67310184      0.00000000    0.00000000    0.00000000
    8    4.48672033    6.57850508   -4.33820770      8.50021742    3.24907891    7.98269762      0.00000000    0.00000000    0.00000000
    1    4.04607833    7.28524308   -3.78474370     -0.02339257    5.51854995   -3.66659733      0.00000000    0.00000000    0.00000000
    1    5.39338633    6.43733808   -4.73569570     -5.16068060    2.01115702   -1.27511426      0.00000000    0.00000000    0.00000000
    8   -0.96842767   -1.13173051   -6.54713665     18.45163378   -9.79038077   -6.19064892      0.00000000    0.00000000    0.00000000
    1   -1.78186467   -1.54863551   -6.95269565     -7.75472412   -6.79683403    0.46558399      0.00000000    0.00000000    0.00000000
    1   -0.10590867   -1.46213251   -6.16391065      2.58786333   -8.52187644   -0.72113295      0.00000000    0.00000000    0.00000000
    8   -7.16194610   -2.53121875   -2.07947805     -7.76577102    2.82272969   -5.13086365      0.00000000    0.00000000    0.00000000
    1   -6.55477610   -2.54791775   -1.28510305     -1.27105811   -8.02403455   -1.02181581      0.00000000    0.00000000    0.00000000
    1    7.33512590   -1.83075075   -2.58581105     -1.91240343   -2.27786319    5.59147712      0.00000000    0.00000000    0.00000000
    8    3.28672380   -3.67766941    4.72518160     20.78318136   -6.09881286  -13.62743077      0.00000000    0.00000000    0.00000000
    1    3.59618380   -3.43670741    5.64503960     -9.66856533    0.02346498    3.85481107      0.00000000    0.00000000    0.00000000
    1    2.54963580   -4.23006141    4.33591060     -3.04709667    1.99973804    5.76587748      0.00000000    0.00000000    0.00000000
    8    6.79943378   -4.92501553   -3.40201417      3.66465665  -11.87388458   -5.91675877      0.00000000    0.00000000    0.00000000
    1    6.54326378   -4.92401653   -2.43540017      1.42779072    4.62294218   -0.37526780      0.00000000    0.00000000    0.00000000
    1    7.05876978   -4.23538453   -4.07812017      2.69526533    1.94775275    4.54847540      0.00000000    0.00000000    0.00000000
    8   -6.65022868   -2.31516008    1.23787376     22.00220280    2.13902331    2.40452509      0.00000000    0.00000000    0.00000000
    1   -6.23614168   -2.69189908    2.06646676     -4.89853928   -3.76995673    0.01656833      0.00000000    0.00000000    0.00000000
    1   -6.34228868   -1.74883408    0.47340376     -4.01035978   -9.11131381    5.23180434      0.00000000    0.00000000    0.00000000
    8   -0.06618419    6.60833403    6.37639405     -8.89353814    1.98636392    0.05466133      0.00000000    0.00000000    0.00000000
    1    0.43540081    7.47280803    6.34378205      3.01045510   -0.79496868  -10.18157436      0.00000000    0.00000000    0.00000000
    1    0.02848781    5.73970803    6.86269905      3.96108008   -0.93227615    0.44262245      0.00000000    0.00000000    0.00000000
    8   -7.21427244    1.20956219    3.92372638   -113.26552396  171.00997125   15.49250800      0.00000000    0.00000000    0.00000000
    1   -6.84106644    2.03814319    4.34102638      2.45229578   -3.46093908    5.42175758      0.00000000    0.00000000    0.00000000
    1   -6.86790744    0.29893819    3.69842338     15.98648105   -5.14629168   12.88817433      0.00000000    0.00000000    0.00000000
    8   -6.41206464    0.03122677   -5.63436852   3053.6081456831569.37443531 4761.65007459      0.00000000    0.00000000    0.00000000
    1   -7.41139464    0.01167077   -5.60398552      7.37055536    0.08013689  -20.33081481      0.00000000    0.00000000    0.00000000
    1   -5.67110064   -0.01105223   -4.96418052     -4.25606797    0.03516425  -10.64549299      0.00000000    0.00000000    0.00000000
    8    4.13888790   -2.36188085   -1.61060691      9.94468631  -21.39874099    0.63298334      0.00000000    0.00000000    0.00000000
    1    5.00937590   -2.84198685   -1.50236391     -0.34434208    2.85259025    0.87353388      0.00000000    0.00000000    0.00000000
    1    3.17754890   -2.62499785   -1.69161391     -0.62232392    9.99514643   -0.65432767      0.00000000    0.00000000    0.00000000
    8   -4.22392765    2.92046722   -2.75599132     -4.45956525   -4.40850737   -1.85559037      0.00000000    0.00000000    0.00000000
    1   -3.75387965    3.62918422   -3.28205332     -1.46047968   -0.89280820   -0.42502277      0.00000000    0.00000000    0.00000000
    1   -5.02208865    2.33369422   -2.89238432      7.15505731    6.08244128    1.14923202      0.00000000    0.00000000    0.00000000
    8   -3.39360011   -4.23192285   -0.62267139  82453.90371083****************************      0.00000000    0.00000000    0.00000000
    1   -3.97702911   -3.48276585   -0.93626539     -4.77511446   -4.84705158   19.49169252      0.00000000    0.00000000    0.00000000
    1   -2.62311011   -4.32823685    0.00743561     -8.56572438   14.41253273   12.78303212      0.00000000    0.00000000    0.00000000
    8   -0.73011268    2.57158635   -3.30465728  **************-4344.41406474-4432.60846640      0.00000000    0.00000000    0.00000000
    1    0.00894632    1.91257035   -3.44414328     23.65051888   17.57593063    3.00820765      0.00000000    0.00000000    0.00000000
    1   -0.79402168    3.54282635   -3.07536628     17.78143523    0.62156993  -11.46453039      0.00000000    0.00000000    0.00000000
    8    6.90747397    0.97143656    1.33052743    195.83791447  304.82607096 -164.90813454      0.00000000    0.00000000    0.00000000
    1    6.36538297    1.80972156    1.38867143     -6.16141933    3.11200218   -5.46688067      0.00000000    0.00000000    0.00000000
    1    6.71368997   -0.00663244    1.25439443    -39.89037208  -12.43851846  -55.22149853      0.00000000    0.00000000    0.00000000
    8    1.49728993   -4.43507786    7.30676865     12.23049023    0.87175630  -17.56707830      0.00000000    0.00000000    0.00000000
    1    1.85816793   -5.22129786    6.80517965     -1.86504901    1.30158675    2.02323778      0.00000000    0.00000000    0.00000000
    1    0.70741293   -4.25718786   -7.10636035     -1.08164765  -10.80462087    2.06604025      0.00000000    0.00000000    0.00000000
    8    0.56046687    5.58124637   -4.80442299  39927.91400382**************-5173.90460383      0.00000000    0.00000000    0.00000000
    1   -0.00233113    6.40781537   -4.80741299   -405.18543063  292.28095961  200.77652842      0.00000000    0.00000000    0.00000000
    1    1.53934287    5.37749137   -4.82035499     10.26716752   -3.55137798   -2.64137165      0.00000000    0.00000000    0.00000000
    8    2.31097451   -0.17829450   -7.16727435     13.35111972  -38.61471909  -18.38412394      0.00000000    0.00000000    0.00000000
    1    2.74355451    0.00117750    6.94919265     -3.39911416   -7.51661702   -0.67080900      0.00000000    0.00000000    0.00000000
    1    1.41780351   -0.00029750   -6.75432235      5.13560093    1.10325759   -4.48470154      0.00000000    0.00000000    0.00000000
    8    6.82372342    1.52527300   -3.09636831      6.65561496   -4.36835084   -2.14971000      0.00000000    0.00000000    0.00000000
    1    6.63763642    2.50673200   -3.14192831     -1.92703501    2.16356516   -0.01171833      0.00000000    0.00000000    0.00000000
    1   -7.36134258    0.95027700   -3.02405631     -1.29743056    2.39019950    0.05352344      0.00000000    0.00000000    0.00000000
    8    3.31597971    0.07764821   -0.53459282  ******************************************      0.00000000    0.00000000    0.00000000
    1    2.47597571   -0.00625279    0.00143018     88.10544962   79.73615977 -100.19308436      0.00000000    0.00000000    0.00000000
    1    4.22476171    0.46939021   -0.39099982      2.13374863  -35.50028299   95.50882683      0.00000000    0.00000000    0.00000000
    8    2.62694681    2.99181823    2.43866257     11.45628532  -12.65606421   25.29012353      0.00000000    0.00000000    0.00000000
    1    2.53583181    3.96250523    2.66099357     -4.90680630    1.37265364   -0.92270158      0.00000000    0.00000000    0.00000000
    1    2.30366881    2.13063923    2.83087257      1.54504467    3.59957799    1.40547121      0.00000000    0.00000000    0.00000000
    8   -2.16545920   -5.47738703   -2.77046986     24.29858596  -11.87712069   -9.03483606      0.00000000    0.00000000    0.00000000
    1   -3.11367120   -5.78520503   -2.84863386     -8.27127734    6.40197035    0.63823934      0.00000000    0.00000000    0.00000000
    1   -1.27868920   -5.91214203   -2.61364286     -7.79861083    4.97889820   -0.57143490      0.00000000    0.00000000    0.00000000
    8   -0.56478367   -1.20055700    0.74137248  -1705.51718213-1489.71941970  699.89207529      0.00000000    0.00000000    0.00000000
    1   -1.41487967   -0.97356200    1.21653348      3.56077191    6.07713884   -3.86573636      0.00000000    0.00000000    0.00000000
    1    0.00039033   -2.01784500    0.62918648    -10.77552014    7.77524276  -11.68154466      0.00000000    0.00000000    0.00000000
    8    1.62540866    2.99895314   -0.02039735  -2114.56309230-1418.70857512   20.82133512      0.00000000    0.00000000    0.00000000
    1    2.59346966    2.75093114   -0.05658535     23.93663345   24.64142764    0.81266184      0.00000000    0.00000000    0.00000000
    1    1.10208866    3.84988914    0.02443965    -25.29316114   -2.03791090    4.05157078      0.00000000    0.00000000    0.00000000
    8   -5.39599560   -0.12431509    6.76932851    338.51063418 -191.01699897   -4.01032731      0.00000000    0.00000000    0.00000000
    1   -6.38672460    0.00262691    6.81735951     88.67450089   -2.22926468  151.26502324      0.00000000    0.00000000    0.00000000
    1   -4.77213060   -0.90453809    6.72447351     -3.27579441    2.36689955   -2.18819163      0.00000000    0.00000000    0.00000000
    8   -7.15381440    6.26035132   -0.00126996   4606.12082710 1979.63310771-1945.17158523      0.00000000    0.00000000    0.00000000
    1    7.08574360    5.61098932    0.00353704    -49.65844140    3.37879688   63.97979090      0.00000000    0.00000000    0.00000000
    1   -7.05792840    7.25572632   -0.00227096     -8.54813698  -29.81479076  -12.32230515      0.00000000    0.00000000    0.00000000
    8    0.91732771   -0.08850008    0.44296997  **************36906.68360046-1153.39280268      0.00000000    0.00000000    0.00000000
    1    0.32192671    0.71205492    0.51062897    -18.39964480  -62.00156350  -44.29934377      0.00000000    0.00000000    0.00000000
    1    1.88481171   -0.25105308    0.24927597   -191.01705737  -32.93655745  -26.35026183      0.00000000    0.00000000    0.00000000
    8   -3.54173402    6.98697256   -5.22756972      3.39315983    0.32654752    5.69950233      0.00000000    0.00000000    0.00000000
    1   -2.86528802   -7.28287344   -5.13132872     -1.28046323   -1.97000822   -1.72783915      0.00000000    0.00000000    0.00000000
    1   -4.48312002    6.83436156   -4.92678872     -2.21231941   -0.26264473   -2.74311909      0.00000000    0.00000000    0.00000000
    8    2.27928090    2.05251842   -6.16489069      0.43905642   51.47207611   15.46066231      0.00000000    0.00000000    0.00000000
    1    2.94097490    1.86471942   -6.89074169     -3.12814028   -5.52416188    3.53547721      0.00000000    0.00000000    0.00000000
    1    1.35480590    1.74653642   -5.93753969      1.65568623    8.21110781    4.09792258      0.00000000    0.00000000    0.00000000
    8    4.10598059    3.86095558   -4.50423554      9.68976365  -11.78182577    6.54277881      0.00000000    0.00000000    0.00000000
    1    4.25278059    3.84474558   -5.49325154     -7.46152729    1.74805661    1.54171407      0.00000000    0.00000000    0.00000000
    1    4.04752759    3.17977458   -3.77448054     -6.32361299   -4.17289121   -3.45260988      0.00000000    0.00000000    0.00000000
    8    1.84167675    7.09252958    0.34692532      1.35763663  -11.33877122   15.48052590      0.00000000    0.00000000    0.00000000
    1    2.81358375    7.27660158    0.20035932     -6.94518131    8.00123712   -2.13362804      0.00000000    0.00000000    0.00000000
    1    0.99347575   -7.38074542    0.29140532      3.05427412    9.19072413   -0.12279003      0.00000000    0.00000000    0.00000000
    8   -5.20352460   -5.31730124   -4.56284076      9.41129598   -7.87837310    2.08492847      0.00000000    0.00000000    0.00000000
    1   -5.65418960   -5.90594324   -3.89174576     -6.64630297    4.80879985   -2.64213339      0.00000000    0.00000000    0.00000000
    1   -5.49891160   -4.66492724   -5.26078076     -1.22018638    2.12537345    1.48176718      0.00000000    0.00000000    0.00000000
    8   -4.82404378    0.67634098   -0.26757641  **************15226.48331558-3229.45630310      0.00000000    0.00000000    0.00000000
    1   -4.17368378   -0.03453602    0.00010159    291.97778558 -168.33090707   14.38610906      0.00000000    0.00000000    0.00000000
    1   -5.75856278    0.92795798   -0.01591941      9.69790048   13.32530511    8.13803426      0.00000000    0.00000000    0.00000000
    8   -4.63754530   -1.95812487   -3.16512811      1.64750553    8.07659789    0.22013320      0.00000000    0.00000000    0.00000000
    1   -3.72660530   -2.30675087   -3.38561511      0.26456803   -2.85364703   -2.35057431      0.00000000    0.00000000    0.00000000
    1   -5.05022530   -1.05692587   -3.03282911      5.10070740   -3.95763415    1.05259636      0.00000000    0.00000000    0.00000000
    8    3.87520153   -4.88942709   -3.36550772     -7.02292213   -2.09764721    2.04949753      0.00000000    0.00000000    0.00000000
    1    3.13193653   -5.15981409   -2.75361372      0.28147660   -1.50484410   -1.18599346      0.00000000    0.00000000    0.00000000
    1    4.15621853   -4.04859209   -3.82810072      1.99948891    2.71481513    1.92038072      0.00000000    0.00000000    0.00000000
    8    0.60557296    0.13323794   -2.91633953    487.13581730  439.32578731-1152.80205216      0.00000000    0.00000000    0.00000000
    1    0.54432296   -0.00711406   -1.92815053     82.87279568   14.99656871   53.42026289      0.00000000    0.00000000    0.00000000
    1    0.00220896   -0.00645206   -3.70145353      6.70178947   10.28745662   -9.99626997      0.00000000    0.00000000    0.00000000
    8    4.74426743   -5.45046648    1.23973072    -13.76577884  -12.42121448  -10.58005708      0.00000000    0.00000000    0.00000000
    1    5.41192643   -5.18391948    0.54463972      4.76981069    4.48374112    5.06405834      0.00000000    0.00000000    0.00000000
    1    4.54447143   -6.27722648    1.76557772      3.30770177    3.02724298    2.68541347      0.00000000    0.00000000    0.00000000
    8   -0.36656022    6.67400335   -4.68515229  **************46836.22851484 5018.05141987      0.00000000    0.00000000    0.00000000
    1   -0.01131522    6.27721635   -5.53151329     32.35943369  -65.41795310  -58.62000723      0.00000000    0.00000000    0.00000000
    1    0.02472278    7.00796835   -3.82763729     15.37499594   -4.59453647   13.58545015      0.00000000    0.00000000    0.00000000
    8   -4.94699759    4.00489506    3.01113664     11.63849120    2.73607014    9.20842623      0.00000000    0.00000000    0.00000000
    1   -4.88090659    5.00144906    2.96134464     -2.83473862   -1.59665474   -1.70713431      0.00000000    0.00000000    0.00000000
    1   -4.51916759    3.28185306    3.55348164     -4.72360683   -0.51728140   -1.14418507      0.00000000    0.00000000    0.00000000
    8   -3.41743880   -6.97883466    0.05214016   -187.75876131  181.11121456 -841.51619121      0.00000000    0.00000000    0.00000000
    1   -2.56163380   -7.03050466   -0.46254084      0.34212336    6.72188821    3.90258043      0.00000000    0.00000000    0.00000000
    1   -4.33674280   -7.36126666   -0.04054984    -10.54234072    5.56133553   -0.26431983      0.00000000    0.00000000    0.00000000
    8    3.03924279   -6.56092766   -6.06645950      0.15669311    2.57441273   -6.51847184      0.00000000    0.00000000    0.00000000
    1    2.12814879   -6.97176366   -6.03343950      0.37449612    0.16759149   -0.36460628      0.00000000    0.00000000    0.00000000
    1    3.41697279   -5.64007666   -5.96992650     -2.66739695    0.62764721    1.91175225      0.00000000    0.00000000    0.00000000
    8   -0.07747009   -5.67016242   -5.98988910     -9.10239507    1.21025929   13.71940966      0.00000000    0.00000000    0.00000000
    1   -0.69465609   -6.19020842   -6.58031310     -1.38217069   -3.49154306   -2.78019941      0.00000000    0.00000000    0.00000000
    1    0.01498091   -5.51306742   -5.00666010     -0.38777547   -1.80913833   -1.91992315      0.00000000    0.00000000    0.00000000
    8   -4.94522920    6.05357337   -2.33320932      1.91928102    9.78140125   -3.32310672      0.00000000    0.00000000    0.00000000
    1   -3.95530420    6.19291437   -2.30872432     -1.53090599   -4.54070813   -0.39891439      0.00000000    0.00000000    0.00000000
    1   -5.75444620    6.64104737   -2.33622832     -1.16553647   -3.76279650    2.48533841      0.00000000    0.00000000    0.00000000
    8   -6.55604252   -1.45787665   -5.85688175  -3064.66987051**************-4700.23626467      0.00000000    0.00000000    0.00000000
    1   -5.56750552   -1.49960765   -5.71190075     -7.36907411    8.39502061   -6.37217536      0.00000000    0.00000000    0.00000000
    1   -7.36449852   -1.35785765   -5.27691475     13.72170009   -1.72612322   -6.66011357      0.00000000    0.00000000    0.00000000
    8    2.50795733    7.18537225    4.57177547     11.30596372    5.04785809    2.88995202      0.00000000    0.00000000    0.00000000
    1    3.42623233   -7.41916875    4.59047947     -5.48755066   -0.16462667   -0.58474010      0.00000000    0.00000000    0.00000000
    1    2.12235533    6.26302225    4.54835247     -4.55914591   -2.55729163    1.16133375      0.00000000    0.00000000    0.00000000
    8    3.94809958    0.35642953    4.13444678     -9.09203470    0.16993191   -1.68346147      0.00000000    0.00000000    0.00000000
    1    4.87479158    0.06110253    3.90208578      6.75811105   11.57275760   18.87566357      0.00000000    0.00000000    0.00000000
    1    3.06254058   -0.08938247    4.26484378     -1.89136664   -6.40221312    0.64718274      0.00000000    0.00000000    0.00000000
    8   -2.18856516    4.14834835   -6.51089340     -2.28734145    5.95694445  -10.68663798      0.00000000    0.00000000    0.00000000
    1   -1.25137616    4.00838135   -6.83034940     -0.86407706   -4.67537234    6.41192093      0.00000000    0.00000000    0.00000000
    1   -2.62254316    4.42346935   -5.65302440      1.53253113    2.24727598    0.33299130      0.00000000    0.00000000    0.00000000
    8    0.02546371   -0.93776838    5.48816494  -6299.28467223 7216.55069441 -100.14112240      0.00000000    0.00000000    0.00000000
    1   -0.12068829    0.02297362    5.72391994    -22.02850962   88.12234924  -63.58610289      0.00000000    0.00000000    0.00000000
    1   -0.00014529   -1.81012438    5.97633194    -26.86927994  -26.02868224  -57.35032620      0.00000000    0.00000000    0.00000000
    8    2.68698046    5.45345288   -7.31211247     -6.17425491    0.20911693    6.48040485      0.00000000    0.00000000    0.00000000
    1    3.40952246    5.99694888    7.26067553     -0.06222694    0.48155624   -0.15301384      0.00000000    0.00000000    0.00000000
    1    2.36540946    4.50863088   -7.37432247      0.88226908   -1.92809054   -1.04190698      0.00000000    0.00000000    0.00000000
    8   -0.11757437    7.15854421    2.96960249  -7367.48576811****************************      0.00000000    0.00000000    0.00000000
    1   -0.68799837   -7.53684079    3.73235649     27.06089787   36.46843445  -17.37807779      0.00000000    0.00000000    0.00000000
    1   -0.03289237   -7.61467679    1.99936149     -4.16186572   27.77267382   35.02285556      0.00000000    0.00000000    0.00000000
    8    0.71674701    3.06335294   -2.79902232  12789.58738291 4355.53935236 4461.33881413      0.00000000    0.00000000    0.00000000
    1   -0.01686099    2.71617294   -2.21485432    -19.67119972  -11.66010257  -16.01008464      0.00000000    0.00000000    0.00000000
    1    1.50094001    3.67294294   -2.68321932      2.03232983   -4.74939259   -0.18829089      0.00000000    0.00000000    0.00000000
    8    3.13654147    4.04041425   -0.04919146  -9243.63921902**************16084.97895839      0.00000000    0.00000000    0.00000000
    1    3.84842547    4.74263225   -0.05803846    -14.49403868    6.44941877  -90.35174963      0.00000000    0.00000000    0.00000000
    1    2.13663247    4.02971625   -0.05504646      8.17341513  -33.31938800   -2.27683293      0.00000000    0.00000000    0.00000000
    8   -0.95681306   -4.97149632    0.97301591   -276.55471709    7.76732152  -91.13269473      0.00000000    0.00000000    0.00000000
    1   -1.11166606   -4.29589332    1.69381291      4.95247677  -10.42599338    5.99815112      0.00000000    0.00000000    0.00000000
    1   -0.97085706   -4.97259232   -0.02686809      0.99277485   -0.61036299    4.12042584      0.00000000    0.00000000    0.00000000
    8   -5.66685172   -6.65593934    2.75223222     -9.14944764   -2.98941342    6.12951120      0.00000000    0.00000000    0.00000000
    1   -6.21229772   -7.48989134    2.83576522      0.68709215   -0.25407908    0.10636133      0.00000000    0.00000000    0.00000000
    1   -5.84658272   -5.67274234    2.78367522      1.29927768   -0.15984187   -3.98469417      0.00000000    0.00000000    0.00000000
    8   -2.46300572    2.07809171   -0.34417539     13.46377830   28.47228434   15.20280108      0.00000000    0.00000000    0.00000000
    1   -2.36271372    1.62459371   -1.22975339     -2.50369072    0.61128533   -1.73784616      0.00000000    0.00000000    0.00000000
    1   -2.82437272    2.95259271   -0.02071239     -8.97612325   -1.59891857   -7.56405199      0.00000000    0.00000000    0.00000000
    8    5.71352370    7.36982845   -1.60356575     -1.59796361   -7.13643360   16.12093675      0.00000000    0.00000000    0.00000000
    1    6.38878570    7.34916145   -2.34083275     -0.96524045    4.66678183   -7.41244369      0.00000000    0.00000000    0.00000000
    1    5.27106270   -6.92226255   -1.05305775     -0.44288433    6.89689401   -6.22274333      0.00000000    0.00000000    0.00000000
    8    0.14992713    3.55040244    4.57717725      2.43899811   -5.01047454    7.03815784      0.00000000    0.00000000    0.00000000
    1   -0.00114487    4.52230344    4.39675525     -2.10553546    5.92419460   -5.77117750      0.00000000    0.00000000    0.00000000
    1   -0.03552287    2.69254144    4.09795925      0.38642167    1.44870668    0.08143928      0.00000000    0.00000000    0.00000000
    8    5.40073253    2.27514568    6.48620200    -15.34530694   -1.13474931   12.44191767      0.00000000    0.00000000    0.00000000
    1    5.41717653    3.00843368    7.16589700      1.65832177    0.34932921   -4.71866009      0.00000000    0.00000000    0.00000000
    1    5.05777953    1.33655368    6.44886000      8.95353457    7.55405890   -7.70694899      0.00000000    0.00000000    0.00000000
    8   -1.85329409    4.85503343    1.41622416  -1175.33551468  308.64250346 -113.03690560      0.00000000    0.00000000    0.00000000
    1   -2.20444609    4.09712543    1.96598216      2.28590754   -0.98494414    3.14560382      0.00000000    0.00000000    0.00000000
    1   -1.04447309    5.01989943    0.85178316      3.08969484  -33.66674481   21.60465162      0.00000000    0.00000000    0.00000000
    8    1.04801925   -2.22493437    5.46664678   6686.45047175-8444.68167536 -119.56970050      0.00000000    0.00000000    0.00000000
    1    0.72037925   -1.84290137    6.33074678     59.33194484   13.53069386   10.12331954      0.00000000    0.00000000    0.00000000
    1    0.91216725   -2.02806137    4.49569278     -7.74597136   16.15073389    8.39885942      0.00000000    0.00000000    0.00000000
    8   -6.24485807   -5.03088476   -0.38932493  ******************************************      0.00000000    0.00000000    0.00000000
    1   -7.17842707   -4.91900476   -0.04888793   -110.20963337  -80.73246378  -93.52072401      0.00000000    0.00000000    0.00000000
    1   -5.82210807   -5.33843576   -1.24176993     -4.67245307    1.50162340    5.14882648      0.00000000    0.00000000    0.00000000
    8   -4.01727951   -4.13399603    0.54526814  **************12993.98272384**************      0.00000000    0.00000000    0.00000000
    1   -3.79208551   -3.73839303    1.43563414     -2.34771079   -9.46443297   -5.56169358      0.00000000    0.00000000    0.00000000
    1   -3.72583451   -4.93243603    0.01846714      8.31601116   36.53953227  -55.06104604      0.00000000    0.00000000    0.00000000
    8   -0.57665481   -4.39585688    4.77590079     -7.92199786    0.96921149    9.60868805      0.00000000    0.00000000    0.00000000
    1   -1.49678381   -4.78414788    4.72531479     -0.13956849   -1.41238278   -3.54497785      0.00000000    0.00000000    0.00000000
    1    0.01888619   -3.87500888    4.16433279     -0.08713751    2.08512969    2.14656282      0.00000000    0.00000000    0.00000000
    8    6.35920778    5.62357698    0.62489000  -4549.22387898-1976.93061876 1869.33617768      0.00000000    0.00000000    0.00000000
    1    6.22647178    6.40304598    0.01270000     -2.54697015   21.08418756  -12.08315820      0.00000000    0.00000000    0.00000000
    1    6.53423778    4.64507198    0.51598900     -2.24527791  -16.39726205   15.09152964      0.00000000    0.00000000    0.00000000
    8   -1.45109858    1.30564765   -5.81529929      5.97665930   14.45372878   -5.31291629      0.00000000    0.00000000    0.00000000
    1   -2.31100858    0.96367965   -5.43637929     -0.63592979    3.00178464    6.25525852      0.00000000    0.00000000    0.00000000
    1   -0.60868858    0.89900065   -6.16878329    -11.17411713   -0.95285211   -3.89755202      0.00000000    0.00000000    0.00000000
    8   -0.95863974    0.76102838    5.71215555  **************-2592.38988333**************      0.00000000    0.00000000    0.00000000
    1   -1.35541874    1.64187038    5.45398755      7.46236209    5.58694174    7.13956231      0.00000000    0.00000000    0.00000000
    1   -1.22160674   -0.00032462    6.30474055    -31.17805302   -7.09242318   -2.48339089      0.00000000    0.00000000    0.00000000
    8    2.75491662   -2.63939018   -6.02455734      5.59130681   -3.82951125   17.73584836      0.00000000    0.00000000    0.00000000
    1    3.74739862   -2.61133718   -6.14354934     -4.13664644    1.89754259   -0.73751488      0.00000000    0.00000000    0.00000000
    1    2.12589062   -2.79204718   -5.26233134      4.73344784    0.14813610   -0.37473794      0.00000000    0.00000000    0.00000000
    8    0.72982922   -1.30128157   -1.40974412   5418.63283846-4866.84063859 -330.80189902      0.00000000    0.00000000    0.00000000
    1    0.00033222   -0.81542157   -1.89113812    -35.14796718  -86.84422000  116.36928263      0.00000000    0.00000000    0.00000000
    1    1.08929122   -1.31756457   -0.47674412      4.51004492   21.47135018   39.71224358      0.00000000    0.00000000    0.00000000
    8    6.43149573   -3.98958295    2.98231167     13.67831568   -2.09618488    9.03433108      0.00000000    0.00000000    0.00000000
    1    6.64712973   -4.60170995    3.74308067     -4.08093577    2.50177577   -0.89072464      0.00000000    0.00000000    0.00000000
    1    5.68941373   -3.35924895    2.75436367     -2.32985398    0.05554473   -1.47247345      0.00000000    0.00000000    0.00000000
    8    1.44074902    7.41736953   -2.31864516    -15.38459938   13.95310712  -21.51768508      0.00000000    0.00000000    0.00000000
    1    1.81921202    6.49177153   -2.31962916      6.26002588   -6.94926915    2.59688443      0.00000000    0.00000000    0.00000000
    1    0.52552302   -7.17975247   -2.32289316      9.31898861   -1.70049377    7.31087861      0.00000000    0.00000000    0.00000000
    8    0.03311460   -6.45817386    3.26170106   7583.9684279269821.7182781614770.97598392      0.00000000    0.00000000    0.00000000
    1    0.16621260    7.58344614    3.00919706   -233.32715753 -358.96525317  -29.19887407      0.00000000    0.00000000    0.00000000
    1    0.34751760   -5.85770486    3.99692606     -1.75579273    1.25040633    0.95554830      0.00000000    0.00000000    0.00000000
    8   -5.79340581    3.39619441    0.32238173    -18.22981080   -8.49786526  -13.33160815      0.00000000    0.00000000    0.00000000