 BEGIN_INFO
   #
   # This is a XCRYSDEN-Structure-File
   # aimed for Visualization of Fermi Surface
   #
   # Case: Tight-binding calculation
   #
   # Launch as: xcrysden --xsf HICOLM.XSF
   #
 END_INFO
 # estrutura final
CRYSTAL
PRIMVEC
      15.00000000       0.00000000       0.00000000
       0.00000000      15.00000000       0.00000000
       0.00000000       0.00000000      15.00000000
PRIMCOORD
  306    1
    6   -7.49368008    7.49999999   -7.40000001      0.00014056   -0.00093996    0.00122727      0.00000000    0.00000000    0.00000000
    6   -6.16000008    7.49999999   -7.40000001      0.00406292   -0.00163360    0.00399605      0.00000000    0.00000000    0.00000000
    1    6.96131992    6.55602999    7.39999999     -0.02450511   -0.05768603    0.00366126      0.00000000    0.00000000    0.00000000
    1    6.96131992   -6.55603001   -7.45291773     -0.02697808    0.00221379    0.04439587      0.00000000    0.00000000    0.00000000
    1   -5.61500008   -6.55603001    7.39999999      0.03499492   -0.01296349    0.04153110      0.00000000    0.00000000    0.00000000
    1   -5.61500008    6.55602999   -7.34708229     -0.07632148    0.21413186    0.04961960      0.00000000    0.00000000    0.00000000
    8    4.48672080    6.57850421   -4.33820722      9.05774009    3.40247565    8.10223132      0.00000000    0.00000000    0.00000000
    1    4.04607880    7.28524221   -3.78474322     -0.20507562    5.51536900   -3.68303832      0.00000000    0.00000000    0.00000000
    1    5.39338680    6.43733721   -4.73569522     -5.82690844    1.71121600   -1.29113847      0.00000000    0.00000000    0.00000000
    8   -0.96842721   -1.13172881   -6.54713668     18.03750653   -9.81732070   -6.85710577      0.00000000    0.00000000    0.00000000
    1   -1.78186421   -1.54863381   -6.95269568     -7.69353152   -6.87450860    0.57152877      0.00000000    0.00000000    0.00000000
    1   -0.10590821   -1.46213081   -6.16391068      2.74425774   -8.44896205   -0.22216270      0.00000000    0.00000000    0.00000000
    8   -7.16194579   -2.53121787   -2.07947856     -7.74796041    2.85787801   -5.07666532      0.00000000    0.00000000    0.00000000
    1   -6.55477579   -2.54791687   -1.28510356     -1.51285500   -8.13022319   -1.01710649      0.00000000    0.00000000    0.00000000
    1    7.33512621   -1.83074987   -2.58581156     -1.92664660   -2.28507189    5.57595427      0.00000000    0.00000000    0.00000000
    8    3.28672515   -3.67766952    4.72518050     20.57142251   -5.86735451  -13.85102273      0.00000000    0.00000000    0.00000000
    1    3.59618515   -3.43670752    5.64503850     -9.52900847   -0.11481621    3.93428556      0.00000000    0.00000000    0.00000000
    1    2.54963715   -4.23006152    4.33590950     -3.00952276    1.98162009    5.78344543      0.00000000    0.00000000    0.00000000
    8    6.79943339   -4.92501640   -3.40201469      3.99447436  -12.42492109   -6.20037411      0.00000000    0.00000000    0.00000000
    1    6.54326339   -4.92401740   -2.43540069      1.33261685    4.75965475   -0.25634416      0.00000000    0.00000000    0.00000000
    1    7.05876939   -4.23538540   -4.07812069      2.55529903    2.24462116    4.55240415      0.00000000    0.00000000    0.00000000
    8   -6.65022794   -2.31515884    1.23787321     21.98611115    2.12405741    2.41151394      0.00000000    0.00000000    0.00000000
    1   -6.23614094   -2.69189784    2.06646621     -4.86214029   -3.80299210    0.06430562      0.00000000    0.00000000    0.00000000
    1   -6.34228794   -1.74883284    0.47340321     -4.31046733   -9.19088336    5.32155760      0.00000000    0.00000000    0.00000000
    8   -0.06618498    6.60833419    6.37639490     -8.47689855    1.93843578   -0.03451125      0.00000000    0.00000000    0.00000000
    1    0.43540002    7.47280819    6.34378290      2.93094283   -0.80302176  -10.12180653      0.00000000    0.00000000    0.00000000
    1    0.02848702    5.73970819    6.86269990      3.76958748   -0.89061227    0.46871223      0.00000000    0.00000000    0.00000000
    8   -7.21427444    1.20956304    3.92372449   -113.26774061  170.76964252   15.33250298      0.00000000    0.00000000    0.00000000
    1   -6.84106844    2.03814404    4.34102449      2.44234454   -3.37271591    5.52119372      0.00000000    0.00000000    0.00000000
    1   -6.86790944    0.29893904    3.69842149     15.99093711   -5.14508378   12.89099537      0.00000000    0.00000000    0.00000000
    8   -6.41206490    0.03122675   -5.63436556   3053.5814043331569.08243905 4761.67116847      0.00000000    0.00000000    0.00000000
    1   -7.41139490    0.01167075   -5.60398256      7.36663179    0.07716265  -20.34282287      0.00000000    0.00000000    0.00000000
    1   -5.67110090   -0.01105225   -4.96417756     -4.39075198    0.03824112  -10.76983246      0.00000000    0.00000000    0.00000000
    8    4.13888809   -2.36188202   -1.61060692     10.73707672  -21.86009399    0.85151435      0.00000000    0.00000000    0.00000000
    1    5.00937609   -2.84198802   -1.50236392     -0.59770436    2.99488351    0.82954360      0.00000000    0.00000000    0.00000000
    1    3.17754909   -2.62499902   -1.69161392     -1.16141174   10.34491278   -0.86457783      0.00000000    0.00000000    0.00000000
    8   -4.22392827    2.92046644   -2.75599097     -3.47721810   -5.30749270   -1.18074973      0.00000000    0.00000000    0.00000000
    1   -3.75388027    3.62918344   -3.28205297     -1.73453263   -0.55872176   -0.72119717      0.00000000    0.00000000    0.00000000
    1   -5.02208927    2.33369344   -2.89238397      6.72056513    6.40204799    0.86151169      0.00000000    0.00000000    0.00000000
    8   -3.39359918   -4.23192381   -0.62267409  82447.50246987****************************      0.00000000    0.00000000    0.00000000
    1   -3.97702818   -3.48276681   -0.93626809     -4.95535335   -5.26380843   19.54408024      0.00000000    0.00000000    0.00000000
    1   -2.62310918   -4.32823781    0.00743291     -8.41189271   14.22392100   12.90117055      0.00000000    0.00000000    0.00000000
    8   -0.73011703    2.57158436   -3.30465633  **************-4345.21634133-4431.30991565      0.00000000    0.00000000    0.00000000
    1    0.00894197    1.91256836   -3.44414233     25.15664242   17.93220209    0.78691688      0.00000000    0.00000000    0.00000000
    1   -0.79402603    3.54282436   -3.07536533     17.91266094    1.36931188  -12.09933027      0.00000000    0.00000000    0.00000000
    8    6.90747875    0.97143752    1.33053350    195.88404825  304.80111981 -164.88386557      0.00000000    0.00000000    0.00000000
    1    6.36538775    1.80972252    1.38867750     -6.25975252    3.11124345   -5.49414196      0.00000000    0.00000000    0.00000000
    1    6.71369475   -0.00663148    1.25440050    -39.90188373  -12.41132921  -55.23702698      0.00000000    0.00000000    0.00000000
    8    1.49729029   -4.43507676    7.30676822     11.90385790    1.00175219  -17.57877165      0.00000000    0.00000000    0.00000000
    1    1.85816829   -5.22129676    6.80517922     -1.64467115    1.23351158    2.05404973      0.00000000    0.00000000    0.00000000
    1    0.70741329   -4.25718676   -7.10636078     -1.10842135  -10.65925218    2.27473865      0.00000000    0.00000000    0.00000000
    8    0.56050646    5.58121795   -4.80444312  39908.18337786**************-5172.09537802      0.00000000    0.00000000    0.00000000
    1   -0.00229154    6.40778695   -4.80743312   -405.19204719  292.39403827  200.57995368      0.00000000    0.00000000    0.00000000
    1    1.53938246    5.37746295   -4.82037512     10.37571879   -3.58758675   -2.68940591      0.00000000    0.00000000    0.00000000
    8    2.31097446   -0.17829393   -7.16727378     13.52122753  -38.52483076  -18.77305217      0.00000000    0.00000000    0.00000000
    1    2.74355446    0.00117807    6.94919322     -3.47115302   -7.53370157   -0.51046088      0.00000000    0.00000000    0.00000000
    1    1.41780346   -0.00029693   -6.75432178      5.05357201    1.02211685   -4.08352114      0.00000000    0.00000000    0.00000000
    8    6.82372350    1.52527245   -3.09636824      6.79874725   -4.39536099   -2.19767897      0.00000000    0.00000000    0.00000000
    1    6.63763650    2.50673145   -3.14192824     -1.97148402    2.19765377   -0.06169589      0.00000000    0.00000000    0.00000000
    1   -7.36134250    0.95027645   -3.02405624     -1.34700953    2.38210470    0.08134173      0.00000000    0.00000000    0.00000000
    8    3.31597045    0.07764390   -0.53459243  ******************************************      0.00000000    0.00000000    0.00000000
    1    2.47596645   -0.00625710    0.00143057     37.82352382   70.57039295  -76.60453570      0.00000000    0.00000000    0.00000000
    1    4.22475245    0.46938590   -0.39099943      1.04447420  -35.57506263   95.58000116      0.00000000    0.00000000    0.00000000
    8    2.62694729    2.99181775    2.43866243     12.00724686  -12.22697477   25.74556595      0.00000000    0.00000000    0.00000000
    1    2.53583229    3.96250475    2.66099343     -5.05015660    1.18716452   -1.02875061      0.00000000    0.00000000    0.00000000
    1    2.30366929    2.13063875    2.83087243      1.27500834    3.59907467    1.06313778      0.00000000    0.00000000    0.00000000
    8   -2.16545761   -5.47738802   -2.77046988     24.03360570  -12.13034090   -9.01620126      0.00000000    0.00000000    0.00000000
    1   -3.11366961   -5.78520602   -2.84863388     -8.18730278    6.36663433    0.59259257      0.00000000    0.00000000    0.00000000
    1   -1.27868761   -5.91214302   -2.61364288     -7.73653762    5.14219581   -0.56459860      0.00000000    0.00000000    0.00000000
    8   -0.56565935   -1.20100670    0.74151900  **************-6282.26705245 2262.17498958      0.00000000    0.00000000    0.00000000
    1   -1.41575535   -0.97401170    1.21668000      6.22844741    3.49820903   -3.34036869      0.00000000    0.00000000    0.00000000
    1   -0.00048535   -2.01829470    0.62933300     -7.18047740   16.21155372  -13.34492201      0.00000000    0.00000000    0.00000000
    8    1.62540858    2.99895077   -0.02039804  -2115.83380318-1418.56222597   18.74361268      0.00000000    0.00000000    0.00000000
    1    2.59346958    2.75092877   -0.05658604     23.96572804   24.05261353    1.14401584      0.00000000    0.00000000    0.00000000
    1    1.10208858    3.84988677    0.02443896    -24.71942755   -2.04116566    4.88544240      0.00000000    0.00000000    0.00000000
    8   -5.39600405   -0.12431495    6.76931360    338.55275646 -190.93838478   -4.04298812      0.00000000    0.00000000    0.00000000
    1   -6.38673305    0.00262705    6.81734460     88.69030028   -2.23438705  151.30168692      0.00000000    0.00000000    0.00000000
    1   -4.77213905   -0.90453795    6.72445860     -3.33366615    2.12336462   -2.15818917      0.00000000    0.00000000    0.00000000
    8   -7.15380843    6.26035369   -0.00127531   4605.85622648 1979.52113991-1945.06880362      0.00000000    0.00000000    0.00000000
    1    7.08574957    5.61099169    0.00353169    -49.65704564    3.37822710   63.97845154      0.00000000    0.00000000    0.00000000
    1   -7.05792243    7.25572869   -0.00227631     -8.54712249  -29.81527819  -12.32266741      0.00000000    0.00000000    0.00000000
    8    0.81456717   -0.38917317    0.46549809  ******************************************      0.00000000    0.00000000    0.00000000
    1    0.21916617    0.41138183    0.53315709    -17.76470820  -18.59706862  -19.29909535      0.00000000    0.00000000    0.00000000
    1    1.78205117   -0.55172617    0.27180409   -136.02994403 -139.91160535   17.32676687      0.00000000    0.00000000    0.00000000
    8   -3.54173368    6.98697295   -5.22756945      2.55671607    0.79130760    6.41898525      0.00000000    0.00000000    0.00000000
    1   -2.86528768   -7.28287305   -5.13132845     -1.08103755   -1.99549485   -1.95319292      0.00000000    0.00000000    0.00000000
    1   -4.48311968    6.83436195   -4.92678845     -1.11864051   -0.84317730   -2.76471579      0.00000000    0.00000000    0.00000000
    8    2.27928111    2.05251829   -6.16489137      0.45109712   51.75432789   15.18946265      0.00000000    0.00000000    0.00000000
    1    2.94097511    1.86471929   -6.89074237     -3.11677716   -5.51441255    3.64848980      0.00000000    0.00000000    0.00000000
    1    1.35480611    1.74653629   -5.93754037      1.68963255    7.95545632    4.21854544      0.00000000    0.00000000    0.00000000
    8    4.10598197    3.86095601   -4.50423529      9.86893643  -11.48686713    6.50512921      0.00000000    0.00000000    0.00000000
    1    4.25278197    3.84474601   -5.49325129     -7.36368184    1.83260147    1.35084038      0.00000000    0.00000000    0.00000000
    1    4.04752897    3.17977501   -3.77448029     -6.33297638   -4.26331536   -3.48195278      0.00000000    0.00000000    0.00000000
    8    1.84167712    7.09252773    0.34692558      1.39723687  -11.13489388   15.39949595      0.00000000    0.00000000    0.00000000
    1    2.81358412    7.27659973    0.20035958     -6.92873675    8.03803438   -2.11437388      0.00000000    0.00000000    0.00000000
    1    0.99347612   -7.38074727    0.29140558      3.05885510    9.19455776   -0.07212094      0.00000000    0.00000000    0.00000000
    8   -5.20352399   -5.31730193   -4.56284081      8.42100307   -9.08361420    1.87944841      0.00000000    0.00000000    0.00000000
    1   -5.65418899   -5.90594393   -3.89174581     -6.24764491    5.32431575   -2.08210606      0.00000000    0.00000000    0.00000000
    1   -5.49891099   -4.66492793   -5.26078081     -0.83112635    2.68227054    1.17741051      0.00000000    0.00000000    0.00000000
    8   -4.82407370    0.67635651   -0.26757874  **************15221.68993212-3229.03827987      0.00000000    0.00000000    0.00000000
    1   -4.17371370   -0.03452049    0.00009926    290.73303043 -168.37520931   14.96764652      0.00000000    0.00000000    0.00000000
    1   -5.75859270    0.92797351   -0.01592174      9.23047998   13.41929801    8.27607105      0.00000000    0.00000000    0.00000000
    8   -4.63754589   -1.95812425   -3.16512789      2.26021579    8.72757370    0.90221461      0.00000000    0.00000000    0.00000000
    1   -3.72660589   -2.30675025   -3.38561489      0.04720263   -3.35145845   -2.89184109      0.00000000    0.00000000    0.00000000
    1   -5.05022589   -1.05692525   -3.03282889      4.64457775   -4.12523605    0.76904930      0.00000000    0.00000000    0.00000000
    8    3.87520143   -4.88942738   -3.36550782     -6.69989611   -2.51538338    2.11025699      0.00000000    0.00000000    0.00000000
    1    3.13193643   -5.15981438   -2.75361382      0.14233362   -1.23043782   -1.17820338      0.00000000    0.00000000    0.00000000
    1    4.15621843   -4.04859238   -3.82810082      1.81147140    2.88569094    1.90851478      0.00000000    0.00000000    0.00000000
    8    0.60551481    0.13322307   -2.91627660    -45.77087159  299.66236664 -423.87160082      0.00000000    0.00000000    0.00000000
    1    0.54426481   -0.00712893   -1.92808760     67.65294415  -13.29851423   33.48121016      0.00000000    0.00000000    0.00000000
    1    0.00215081   -0.00646693   -3.70139060      8.27831704    4.18426148   -1.17114469      0.00000000    0.00000000    0.00000000
    8    4.74426654   -5.45046713    1.23972996    -13.72969629  -12.46006270  -10.64638132      0.00000000    0.00000000    0.00000000
    1    5.41192554   -5.18392013    0.54463896      4.75315718    4.50134209    5.06641113      0.00000000    0.00000000    0.00000000
    1    4.54447054   -6.27722713    1.76557696      3.37842467    2.93560895    2.79829486      0.00000000    0.00000000    0.00000000
    8   -0.36656417    6.67400914   -4.68514797  **************46811.91980320 5016.69879650      0.00000000    0.00000000    0.00000000
    1   -0.01131917    6.27722214   -5.53150897     32.19728376  -65.33860830  -58.72812892      0.00000000    0.00000000    0.00000000
    1    0.02471883    7.00797414   -3.82763297     15.32714126   -4.41846258   13.45502190      0.00000000    0.00000000    0.00000000
    8   -4.94699695    4.00489521    3.01113680     11.59104668    2.77225708    9.03984082      0.00000000    0.00000000    0.00000000
    1   -4.88090595    5.00144921    2.96134480     -2.74926382   -1.68466481   -1.69470275      0.00000000    0.00000000    0.00000000
    1   -4.51916695    3.28185321    3.55348180     -4.71778059   -0.46475327   -1.02281775      0.00000000    0.00000000    0.00000000
    8   -3.41743777   -6.97883579    0.05213993   -187.75828064  181.11050540 -841.49972035      0.00000000    0.00000000    0.00000000
    1   -2.56163277   -7.03050579   -0.46254107      0.32219241    6.77987805    3.90416764      0.00000000    0.00000000    0.00000000
    1   -4.33674177   -7.36126779   -0.04055007    -10.54104179    5.56037275   -0.26333665      0.00000000    0.00000000    0.00000000
    8    3.03924312   -6.56092786   -6.06645965     -0.02770486    2.55304487   -6.22791272      0.00000000    0.00000000    0.00000000
    1    2.12814912   -6.97176386   -6.03343965      0.56885344    0.15860371   -0.45829166      0.00000000    0.00000000    0.00000000
    1    3.41697312   -5.64007686   -5.96992665     -2.55353557    0.62079617    1.73783114      0.00000000    0.00000000    0.00000000
    8   -0.07746976   -5.67016182   -5.98988872     -8.77069545    0.98553695   13.61364914      0.00000000    0.00000000    0.00000000
    1   -0.69465576   -6.19020782   -6.58031272     -1.62588151   -3.53686171   -2.84516105      0.00000000    0.00000000    0.00000000
    1    0.01498124   -5.51306682   -5.00665972     -0.48902826   -1.72679660   -1.95744478      0.00000000    0.00000000    0.00000000
    8   -4.94522887    6.05357383   -2.33320937      1.72971601    9.91510856   -3.61773728      0.00000000    0.00000000    0.00000000
    1   -3.95530387    6.19291483   -2.30872437     -1.41959442   -4.61279761   -0.31606869      0.00000000    0.00000000    0.00000000
    1   -5.75444587    6.64104783   -2.33622837     -1.03748523   -3.86719222    2.79727178      0.00000000    0.00000000    0.00000000
    8   -6.55604319   -1.45787729   -5.85688059  -3064.63997988**************-4700.09451000      0.00000000    0.00000000    0.00000000
    1   -5.56750619   -1.49960829   -5.71189959     -7.38386224    8.26376178   -6.47158273      0.00000000    0.00000000    0.00000000
    1   -7.36449919   -1.35785829   -5.27691359     13.72796973   -1.87259592   -6.74649184      0.00000000    0.00000000    0.00000000
    8    2.50795798    7.18537262    4.57177527     10.94232309    5.02503606    2.63223155      0.00000000    0.00000000    0.00000000
    1    3.42623298   -7.41916838    4.59047927     -2.45454999   -0.17615056    0.99991760      0.00000000    0.00000000    0.00000000
    1    2.12235598    6.26302262    4.54835227     -4.39323794   -2.55471638    1.24853966      0.00000000    0.00000000    0.00000000
    8    3.94809910    0.35642918    4.13444488     -8.86644065    0.12850450   -1.40758259      0.00000000    0.00000000    0.00000000
    1    4.87479110    0.06110218    3.90208388      6.72134515   11.60572137   18.84019605      0.00000000    0.00000000    0.00000000
    1    3.06254010   -0.08938282    4.26484188     -2.03055249   -6.37647745    0.45642811      0.00000000    0.00000000    0.00000000
    8   -2.18856531    4.14834855   -6.51089418     -1.95178056    5.77130525  -10.59317243      0.00000000    0.00000000    0.00000000
    1   -1.25137631    4.00838155   -6.83035018     -1.05625465   -4.60515701    6.42619094      0.00000000    0.00000000    0.00000000
    1   -2.62254331    4.42346955   -5.65302518      1.42514079    2.31502397    0.14949444      0.00000000    0.00000000    0.00000000
    8    0.02546861   -0.93777458    5.48817694  -6299.70054045 7217.15508677  -99.67492194      0.00000000    0.00000000    0.00000000
    1   -0.12068339    0.02296742    5.72393194    -22.02818427   88.11772674  -63.72490573      0.00000000    0.00000000    0.00000000
    1   -0.00014039   -1.81013058    5.97634394    -26.88141174  -25.99050059  -57.49220007      0.00000000    0.00000000    0.00000000
    8    2.68698025    5.45345310   -7.31211223     -6.59127203    0.08324112    6.57063473      0.00000000    0.00000000    0.00000000
    1    3.40952225    5.99694910    7.26067577      0.26149360    0.52785506   -0.18593816      0.00000000    0.00000000    0.00000000
    1    2.36540925    4.50863110   -7.37432223      1.11111926   -1.81886437   -1.06347354      0.00000000    0.00000000    0.00000000
    8   -0.11767208    7.15772527    2.96941333  -8209.36591316****************************      0.00000000    0.00000000    0.00000000
    1   -0.68809608   -7.53765973    3.73216733     27.36117522   36.79513466  -17.62643995      0.00000000    0.00000000    0.00000000
    1   -0.03299008   -7.61549573    1.99917233     -4.13640927   27.77797688   35.35952787      0.00000000    0.00000000    0.00000000
    8    0.71674859    3.06335453   -2.79902081  12787.52878757 4355.46117809 4461.59345608      0.00000000    0.00000000    0.00000000
    1   -0.01685941    2.71617453   -2.21485281    -18.52793968  -10.42539037  -17.22340524      0.00000000    0.00000000    0.00000000
    1    1.50094159    3.67294453   -2.68321781      2.51441252   -4.67205602   -0.37862966      0.00000000    0.00000000    0.00000000
    8    3.13654218    4.04041682   -0.04918216  -9243.64240497**************16084.83610580      0.00000000    0.00000000    0.00000000
    1    3.84842618    4.74263482   -0.05802916    -14.52811592    6.35210310  -90.30790196      0.00000000    0.00000000    0.00000000
    1    2.13663318    4.02971882   -0.05503716      8.36806435  -33.49807026   -1.98082602      0.00000000    0.00000000    0.00000000
    8   -0.95681364   -4.97149542    0.97301499   -276.79666669    7.28410627  -90.91403553      0.00000000    0.00000000    0.00000000
    1   -1.11166664   -4.29589242    1.69381199      5.17332819  -10.15033732    5.90211858      0.00000000    0.00000000    0.00000000
    1   -0.97085764   -4.97259142   -0.02686901      1.19531746   -0.45009296    4.15525880      0.00000000    0.00000000    0.00000000
    8   -5.66685177   -6.65593935    2.75223261     -9.34368615   -3.15431110    6.37428917      0.00000000    0.00000000    0.00000000
    1   -6.21229777   -7.48989135    2.83576561      0.75250641   -0.23824191   -0.12997536      0.00000000    0.00000000    0.00000000
    1   -5.84658277   -5.67274235    2.78367561      1.36337133   -0.05129848   -4.02829130      0.00000000    0.00000000    0.00000000
    8   -2.46300556    2.07809217   -0.34417378      2.98530956   33.07835188   21.17821546      0.00000000    0.00000000    0.00000000
    1   -2.36271356    1.62459417   -1.22975178     -3.87597555    2.82037763   -1.76726336      0.00000000    0.00000000    0.00000000
    1   -2.82437256    2.95259317   -0.02071078     -9.67777682   -0.70546299   -6.97348118      0.00000000    0.00000000    0.00000000
    8    5.71352382    7.36982715   -1.60356436     -1.41792218   -7.13283063   15.87464664      0.00000000    0.00000000    0.00000000
    1    6.38878582    7.34916015   -2.34083136     -1.13142096    4.65346207   -7.13075529      0.00000000    0.00000000    0.00000000
    1    5.27106282   -6.92226385   -1.05305636     -0.45800404    6.91528221   -6.21365244      0.00000000    0.00000000    0.00000000
    8    0.14992732    3.55040151    4.57717791      2.44832722   -4.68770491    7.63101129      0.00000000    0.00000000    0.00000000
    1   -0.00114468    4.52230251    4.39675591     -2.11604346    5.89476506   -5.78325639      0.00000000    0.00000000    0.00000000
    1   -0.03552268    2.69254051    4.09795991      0.44021178    1.39138191   -0.17068718      0.00000000    0.00000000    0.00000000
    8    5.40073152    2.27514489    6.48620309    -15.48127332   -1.51748556   12.35048293      0.00000000    0.00000000    0.00000000
    1    5.41717552    3.00843289    7.16589809      1.73799071    0.60377428   -4.72553668      0.00000000    0.00000000    0.00000000
    1    5.05777852    1.33655289    6.44886109      9.02970632    7.75197463   -7.66863796      0.00000000    0.00000000    0.00000000
    8   -1.85329474    4.85503700    1.41622164  -1175.46264955  308.40019146 -113.57310818      0.00000000    0.00000000    0.00000000
    1   -2.20444674    4.09712900    1.96597964      2.40831695   -0.89626402    3.43060027      0.00000000    0.00000000    0.00000000
    1   -1.04447374    5.01990300    0.85178064      3.17607058  -33.47795416   21.93568962      0.00000000    0.00000000    0.00000000
    8    1.04801422   -2.22493752    5.46664498   6686.96978842-8445.34412696 -119.31228670      0.00000000    0.00000000    0.00000000
    1    0.72037422   -1.84290452    6.33074498     59.30662866   13.55223730   10.22165390      0.00000000    0.00000000    0.00000000
    1    0.91216222   -2.02806452    4.49569098     -7.81347799   16.19132680    8.16752384      0.00000000    0.00000000    0.00000000
    8   -6.24485156   -5.03087938   -0.38931480  ******************************************      0.00000000    0.00000000    0.00000000
    1   -7.17842056   -4.91899938   -0.04887780   -110.22296995  -80.73012387  -93.53308597      0.00000000    0.00000000    0.00000000
    1   -5.82210156   -5.33843038   -1.24175980     -4.65559267    1.54403880    5.21986278      0.00000000    0.00000000    0.00000000
    8   -4.01727986   -4.13399897    0.54527355  **************12993.01094798**************      0.00000000    0.00000000    0.00000000
    1   -3.79208586   -3.73839597    1.43563955     -2.34352351   -9.62021886   -5.40958708      0.00000000    0.00000000    0.00000000
    1   -3.72583486   -4.93243897    0.01847255      8.36816186   36.44474754  -54.99853460      0.00000000    0.00000000    0.00000000
    8   -0.57665468   -4.39585705    4.77590103     -7.57514808    0.20553947    9.20875983      0.00000000    0.00000000    0.00000000
    1   -1.49678368   -4.78414805    4.72531503     -0.23401395   -1.35062460   -3.52599172      0.00000000    0.00000000    0.00000000
    1    0.01888632   -3.87500905    4.16433303     -0.05188949    2.08573950    2.05536604      0.00000000    0.00000000    0.00000000
    8    6.35920825    5.62357657    0.62488985  -4548.96660434-1976.82321078 1869.19487313      0.00000000    0.00000000    0.00000000
    1    6.22647225    6.40304557    0.01269985     -2.54648774   21.08402925  -12.08346015      0.00000000    0.00000000    0.00000000
    1    6.53423825    4.64507157    0.51598885     -2.30754913  -16.46200718   15.08778518      0.00000000    0.00000000    0.00000000
    8   -1.45109744    1.30564765   -5.81529949      5.60922506   14.80761944   -4.85724934      0.00000000    0.00000000    0.00000000
    1   -2.31100744    0.96367965   -5.43637949     -0.51447371    2.89162140    5.82901246      0.00000000    0.00000000    0.00000000
    1   -0.60868744    0.89900065   -6.16878349    -10.96940499   -1.20271161   -3.83993650      0.00000000    0.00000000    0.00000000
    8   -0.95863725    0.76102850    5.71215501  **************-2592.49926466**************      0.00000000    0.00000000    0.00000000
    1   -1.35541625    1.64187050    5.45398701      7.49011175    5.58542186    7.02870907      0.00000000    0.00000000    0.00000000
    1   -1.22160425   -0.00032450    6.30474001    -31.13208203   -7.08852437   -2.43193791      0.00000000    0.00000000    0.00000000
    8    2.75491648   -2.63939035   -6.02455740      5.62873085   -3.82254428   17.44975137      0.00000000    0.00000000    0.00000000
    1    3.74739848   -2.61133735   -6.14354940     -4.22138782    1.86685180   -0.60722102      0.00000000    0.00000000    0.00000000
    1    2.12589048   -2.79204735   -5.26233140      4.52269424    0.45712268    0.03180926      0.00000000    0.00000000    0.00000000
    8    0.72935736   -1.30084773   -1.40974781    335.05985579 -362.42904017 -266.51869338      0.00000000    0.00000000    0.00000000
    1   -0.00013964   -0.81498773   -1.89114181    -15.21640569  -34.23153412    6.34989998      0.00000000    0.00000000    0.00000000
    1    1.08881936   -1.31713073   -0.47674781    -11.42713850   25.65179596   44.26629069      0.00000000    0.00000000    0.00000000
    8    6.43149648   -3.98958322    2.98231177     13.63515937   -2.10191505    8.85023440      0.00000000    0.00000000    0.00000000
    1    6.64713048   -4.60171022    3.74308077     -4.15196897    2.59513072   -0.80109997      0.00000000    0.00000000    0.00000000
    1    5.68941448   -3.35924922    2.75436377     -2.30267523    0.00202721   -1.35700208      0.00000000    0.00000000    0.00000000
    8    1.44074757    7.41737049   -2.31864614    -15.45905658   13.70634666  -21.45006333      0.00000000    0.00000000    0.00000000
    1    1.81921057    6.49177249   -2.31963014      6.25799966   -7.01504559    2.65096353      0.00000000    0.00000000    0.00000000
    1    0.52552157   -7.17975151   -2.32289414      9.33115706   -1.54103412    7.27622417      0.00000000    0.00000000    0.00000000
    8    0.03323720   -6.46999220    3.26189081   8438.6885356976942.7289185516426.14742523      0.00000000    0.00000000    0.00000000
    1    0.16633520    7.57162780    3.00938681   -249.67027545 -368.82857772  -32.80660190      0.00000000    0.00000000    0.00000000
    1    0.34764020   -5.86952320    3.99711581     -1.57939641    1.30258505    0.72775482      0.00000000    0.00000000    0.00000000
    8   -5.79340765    3.39619305    0.32238071    -17.90557872   -8.71661254  -13.45090473      0.00000000    0.00000000    0.00000000