 BEGIN_INFO
   #
   # This is a XCRYSDEN-Structure-File
   # aimed for Visualization of Fermi Surface
   #
   # Case: Tight-binding calculation
   #
   # Launch as: xcrysden --xsf HICOLM.XSF
   #
 END_INFO
 # estrutura final
CRYSTAL
PRIMVEC
      15.00000000       0.00000000       0.00000000
       0.00000000      15.00000000       0.00000000
       0.00000000       0.00000000      15.00000000
PRIMCOORD
  306    1
    6    0.00631946   -0.00000016    0.09999922     -0.47159862   -0.15145139   -0.76614947      0.00000000    0.00000000    0.00000000
    6    1.33999946   -0.00000016    0.09999922     -2.19712059    0.30724658   -0.52548872      0.00000000    0.00000000    0.00000000
    1   -0.53868054   -0.94397016   -0.10000078      0.22448472    0.65257195    0.50105935      0.00000000    0.00000000    0.00000000
    1   -0.53868054    0.94396984    0.04708150     -0.30794166   -0.29882887    0.75421836      0.00000000    0.00000000    0.00000000
    1    1.88499946    0.94396984   -0.10000078      0.80804251   -0.98113493    0.53031009      0.00000000    0.00000000    0.00000000
    1    1.88499946   -0.94397016    0.15291694      1.61279057   -0.48719271    0.67609619      0.00000000    0.00000000    0.00000000
    8   -3.01327159   -0.92149291    3.16179993      8.52380274    3.18068337    7.96575572      0.00000000    0.00000000    0.00000000
    1   -3.45391359   -0.21475491    3.71526393     -0.05253199    5.53954892   -3.64052662      0.00000000    0.00000000    0.00000000
    1   -2.10660559   -1.06265991    2.76431193     -5.15827335    2.03236274   -1.26710050      0.00000000    0.00000000    0.00000000
    8    6.53158891    6.36826208    0.95285666     17.96209243  -10.10457021   -7.25304175      0.00000000    0.00000000    0.00000000
    1    5.71815191    5.95135708    0.54729766     -7.47081340   -6.60873426    0.86913701      0.00000000    0.00000000    0.00000000
    1    7.39410791    6.03786008    1.33608266      2.68924142   -8.25779763    0.11935319      0.00000000    0.00000000    0.00000000
    8    0.33804711    4.96878469    5.42051657     -8.04847894    2.90075604   -5.50768306      0.00000000    0.00000000    0.00000000
    1    0.94521711    4.95208569    6.21489157     -1.11537061   -8.23583132   -0.74305354      0.00000000    0.00000000    0.00000000
    1   -0.16488089    5.66925269    4.91418357     -1.96695934   -2.25410358    5.61489242      0.00000000    0.00000000    0.00000000
    8   -4.21325614    3.82232501   -2.77483196     20.94898161   -6.18906855  -13.91460721      0.00000000    0.00000000    0.00000000
    1   -3.90379614    4.06328701   -1.85497396     -9.65146960    0.03096528    3.85881876      0.00000000    0.00000000    0.00000000
    1   -4.95034414    3.26993301   -3.16410296     -2.98663310    2.02618156    5.75077328      0.00000000    0.00000000    0.00000000
    8   -0.70056323    2.57497306    4.09798010      3.85122160  -11.71012123   -5.76407318      0.00000000    0.00000000    0.00000000
    1   -0.95673323    2.57597206    5.06459410      1.18058186    4.44146854   -0.52312295      0.00000000    0.00000000    0.00000000
    1   -0.44122723    3.26460406    3.42187410      2.63801957    1.92158057    4.48591063      0.00000000    0.00000000    0.00000000
    8    0.84979143    5.18484323   -6.26212435     21.20709755    2.43045453    2.84458343      0.00000000    0.00000000    0.00000000
    1    1.26387843    4.80810423   -5.43353135     -4.61041079   -3.79408814   -0.24194237      0.00000000    0.00000000    0.00000000
    1    1.15773143    5.75116923   -7.02659435     -4.35642895   -9.47059446    5.34217465      0.00000000    0.00000000    0.00000000
    8    7.43380693   -0.89166401   -1.12360505     -8.97072929    1.98985065    0.04824517      0.00000000    0.00000000    0.00000000
    1   -7.06460807   -0.02719001   -1.15621705      5.62314222   -0.68667729   -2.74566284      0.00000000    0.00000000    0.00000000
    1   -7.47152107   -1.76029001   -0.63730005      4.02967915   -3.01581271    2.98399321      0.00000000    0.00000000    0.00000000
    8    0.28562046   -6.29027891   -3.57626134   -119.89437391  179.70390488   15.95185903      0.00000000    0.00000000    0.00000000
    1    0.65882646   -5.46169791   -3.15896134      2.42923211   -3.48855010    5.39729270      0.00000000    0.00000000    0.00000000
    1    0.63198546   -7.20090291   -3.80156434     16.68197449   -5.81650043   13.11483743      0.00000000    0.00000000    0.00000000
    8    1.09016954   -7.44567451    1.86912563   2050.4094790321194.80593287 3210.77362347      0.00000000    0.00000000    0.00000000
    1    0.09083954   -7.46523051    1.89950863      6.55659782   -0.41753066  -19.38377845      0.00000000    0.00000000    0.00000000
    1    1.83113354    7.51204649    2.53931363     -4.34320865   -0.16145757  -15.26111327      0.00000000    0.00000000    0.00000000
    8   -3.36110214    5.13809783    5.88939350     11.00470562  -22.59176749    0.38565188      0.00000000    0.00000000    0.00000000
    1   -2.49061414    4.65799183    5.99763650     -0.68086932    3.01424442    0.81983259      0.00000000    0.00000000    0.00000000
    1   -4.32244114    4.87498083    5.80838650     -0.96074163   10.46292679   -0.84415734      0.00000000    0.00000000    0.00000000
    8    3.27606813   -4.57953825    4.74400796     -3.94403230   -5.20656713   -1.20735278      0.00000000    0.00000000    0.00000000
    1    3.74611613   -3.87082125    4.21794596     -1.55057170   -0.61346749   -0.67974848      0.00000000    0.00000000    0.00000000
    1    2.47790713   -5.16631125    4.60761496      6.61356498    6.37470289    0.83470086      0.00000000    0.00000000    0.00000000
    8    4.14074435    3.26263960    6.81301611  21087.71525926-3353.19796740**************      0.00000000    0.00000000    0.00000000
    1    3.55731535    4.01179660    6.49942211     -5.70309323   -3.28204494   15.57229464      0.00000000    0.00000000    0.00000000
    1    4.91123435    3.16632560   -7.55687689    -15.76985475  -15.46804955   14.69186858      0.00000000    0.00000000    0.00000000
    8    6.75940095   -4.93196758    4.19172244  **************-3599.52909816-3667.25904133      0.00000000    0.00000000    0.00000000
    1   -7.50154005   -5.59098358    4.05223644     24.48540771   10.73244255    4.15548147      0.00000000    0.00000000    0.00000000
    1    6.69549195   -3.96072758    4.42101344     17.79269666    0.69988553  -11.64418139      0.00000000    0.00000000    0.00000000
    8   -0.59234443   -6.52828864   -6.16961403    196.83118402  303.58536846 -163.02489916      0.00000000    0.00000000    0.00000000
    1   -1.13443543   -5.69000364   -6.11147003     -6.50645865    2.81296705   -5.53865698      0.00000000    0.00000000    0.00000000
    1   -0.78612843    7.49364236   -6.24574703    -36.81261895  -12.24805605  -53.21436905      0.00000000    0.00000000    0.00000000
    8   -6.00269867    3.06492395   -0.19324753     12.23359764    0.74367598  -17.45165987      0.00000000    0.00000000    0.00000000
    1   -5.64182067    2.27870395   -0.69483653     -1.85042800    1.31564276    2.04072053      0.00000000    0.00000000    0.00000000
    1   -6.79257567    3.24281395    0.39362347     -1.12530344  -10.63679226    2.28730074      0.00000000    0.00000000    0.00000000
    8   -6.91452458   -1.94820899    2.69231391  20181.06665111**************-2627.41988615      0.00000000    0.00000000    0.00000000
    1    7.52267742   -1.12163999    2.68932391   -285.25765843  244.82650896  196.91020866      0.00000000    0.00000000    0.00000000
    1   -5.93564858   -2.15196399    2.67638191     10.27400784   -3.76437895   -2.78082311      0.00000000    0.00000000    0.00000000
    8   -5.18901272    7.32167097    0.33270899     14.59776814  -39.35243933  -18.68944067      0.00000000    0.00000000    0.00000000
    1   -4.75643272   -7.49885703   -0.55082401     -3.24159186   -7.53785853    2.50930731      0.00000000    0.00000000    0.00000000
    1   -6.08218372    7.49966797    0.74566099      4.96589954    1.11922568   -4.04481330      0.00000000    0.00000000    0.00000000
    8   -0.67626941   -5.97473084    4.40363009      8.55665279   -3.25412443   -1.63493117      0.00000000    0.00000000    0.00000000
    1   -0.86235641   -4.99327184    4.35807009     -2.06700654    2.05515776   -0.02560761      0.00000000    0.00000000    0.00000000
    1    0.13866459   -6.54972684    4.47594209     -1.30977657    2.44537531    0.04750041      0.00000000    0.00000000    0.00000000
    8   -4.21552752   -7.43711412    6.92601652  ******************************************      0.00000000    0.00000000    0.00000000
    1   -5.05553152    7.47898488   -7.53796048    -10.68663272   21.59744330  -62.66270329      0.00000000    0.00000000    0.00000000
    1   -3.30674552   -7.04537212    7.06960952      6.38021249  -29.09405576   74.88657329      0.00000000    0.00000000    0.00000000
    8   -4.87304108   -4.50819325   -5.06131338     12.73151734  -12.41323008   27.27643187      0.00000000    0.00000000    0.00000000
    1   -4.96415608   -3.53750625   -4.83898238     -5.36806243    1.03054333   -1.23493913      0.00000000    0.00000000    0.00000000
    1   -5.19631908   -5.36937225   -4.66910338      0.80528715    3.69985576    0.64774579      0.00000000    0.00000000    0.00000000
    8    5.33456518    2.02259987    4.72952008     26.24706251  -14.39356662  -12.67437995      0.00000000    0.00000000    0.00000000
    1    4.38635318    1.71478187    4.65135608     -8.13260673    6.49528693    0.90645561      0.00000000    0.00000000    0.00000000
    1    6.22133518    1.58784487    4.88634708     -7.88966844    5.28009504   -0.53907161      0.00000000    0.00000000    0.00000000
    8    6.93333533    6.29735547   -6.75763382  -2006.12922282-2186.24954071 1042.13585999      0.00000000    0.00000000    0.00000000
    1    6.08323933    6.52435047   -6.28247282      5.34582981    4.65419881   -1.38786899      0.00000000    0.00000000    0.00000000
    1   -7.50149067    5.48006747   -6.86981982    -12.32560232   12.02567642  -19.20203836      0.00000000    0.00000000    0.00000000
    8   -5.87657912   -4.50237117    7.47961177  -2293.34190840-1514.71720646    4.06937372      0.00000000    0.00000000    0.00000000
    1   -4.90851812   -4.75039317    7.44342377     23.49531327   24.79801920    1.43556260      0.00000000    0.00000000    0.00000000
    1   -6.39989912   -3.65143517   -7.47555123    -26.61916419   -3.39358546    4.41293417      0.00000000    0.00000000    0.00000000
    8    2.10429990    7.37551334   -0.73069011    336.92761890 -190.50849235   -4.20556913      0.00000000    0.00000000    0.00000000
    1    1.11357090   -7.49754466   -0.68265911     89.47764500   -2.24236012  154.94300681      0.00000000    0.00000000    0.00000000
    1    2.72816490    6.59529034   -0.77554511     -3.21813696    2.38651506   -2.26472908      0.00000000    0.00000000    0.00000000
    8    0.35019371   -1.23792712    7.49703493   4295.91734555 1844.92940604-1813.50666083      0.00000000    0.00000000    0.00000000
    1   -0.41024829   -1.88728912   -7.49815807    -49.81334346   -3.98284199   62.16345040      0.00000000    0.00000000    0.00000000
    1    0.44607971   -0.24255212    7.49603393     -6.42082928  -34.98290048  -19.06739157      0.00000000    0.00000000    0.00000000
    8   -6.95568397   -7.38604999   -7.31887696    769.09846205 3696.52754139-1177.04796607      0.00000000    0.00000000    0.00000000
    1    7.44891503   -6.58549499   -7.25121796     -4.24124456   -0.81859737   -1.21580725      0.00000000    0.00000000    0.00000000
    1   -5.98819997    7.45139701    7.48742904      2.87895774   -2.11135314  -14.63195332      0.00000000    0.00000000    0.00000000
    8    3.95826931   -0.51302684    2.27243554      3.10376448    0.23947411    5.56177916      0.00000000    0.00000000    0.00000000
    1    4.63471531    0.21712716    2.36867654     -1.06165525   -1.99650012   -1.65461647      0.00000000    0.00000000    0.00000000
    1    3.01688331   -0.66563784    2.57321654     -2.18308129   -0.25453323   -2.72506584      0.00000000    0.00000000    0.00000000
    8   -5.22071808   -5.44743491    1.33512190      0.82699567   51.94209378   14.84002356      0.00000000    0.00000000    0.00000000
    1   -4.55902408   -5.63523391    0.60927090     -3.33424027   -5.73880074    3.99677787      0.00000000    0.00000000    0.00000000
    1   -6.14519308   -5.75341691    1.56247290      1.42922285    7.96117292    4.57320780      0.00000000    0.00000000    0.00000000
    8   -3.39400892   -3.63905417    2.99577036     10.02910365  -11.28928582    6.31289832      0.00000000    0.00000000    0.00000000
    1   -3.24720892   -3.65526417    2.00675436     -7.45133320    1.68025078    1.52960565      0.00000000    0.00000000    0.00000000
    1   -3.45246192   -4.32023517    3.72552536     -6.49888298   -4.32540373   -3.35986013      0.00000000    0.00000000    0.00000000
    8   -5.65832163   -0.40748196   -7.15306045      1.29748218  -10.80822675   15.54803084      0.00000000    0.00000000    0.00000000
    1   -4.68641463   -0.22340996   -7.29962645     -7.05640010    7.86180015   -2.09973279      0.00000000    0.00000000    0.00000000
    1   -6.50652263    0.11924304   -7.20858045      3.07655459    9.07362207   -0.17741655      0.00000000    0.00000000    0.00000000
    8    2.29648453    2.18269119    2.93716119      9.32785868   -7.71595325    2.27024464      0.00000000    0.00000000    0.00000000
    1    1.84581953    1.59404919    3.60825619     -6.64631345    4.64646407   -2.73943110      0.00000000    0.00000000    0.00000000
    1    2.00109753    2.83506519    2.23922119     -1.21910007    2.08406880    1.40963124      0.00000000    0.00000000    0.00000000
    8    2.66468945   -6.81173760    7.22989194  **************11582.53638220-2464.34451989      0.00000000    0.00000000    0.00000000
    1    3.31504945    7.47738540   -7.50243006    264.21448101 -141.87477121   20.20505696      0.00000000    0.00000000    0.00000000
    1    1.73017045   -6.56012060    7.48154894      9.12125823   12.69106591    8.28092298      0.00000000    0.00000000    0.00000000
    8    2.86245619    5.54188339    4.33487322      2.38257257    8.34879514    1.30088070      0.00000000    0.00000000    0.00000000
    1    3.77339619    5.19325739    4.11438622      0.23972959   -3.19626445   -3.24275602      0.00000000    0.00000000    0.00000000
    1    2.44977619    6.44308239    4.46717222      4.60807628   -4.11301039    0.53005939      0.00000000    0.00000000    0.00000000
    8   -3.62480468    2.61057049    4.13449396     -6.78181118   -2.36253636    1.99704805      0.00000000    0.00000000    0.00000000
    1   -4.36806968    2.34018349    4.74638796      0.10845883   -1.25034111   -1.14245444      0.00000000    0.00000000    0.00000000
    1   -3.34378768    3.45140549    3.67190096      1.75344424    2.93410418    1.99724250      0.00000000    0.00000000    0.00000000
    8   -6.89455380   -7.36649032    4.58341356    -77.48224304  316.12401286 -350.31013008      0.00000000    0.00000000    0.00000000
    1   -6.95580380    7.49315768    5.57160256     38.82678413    5.70727883   18.18340467      0.00000000    0.00000000    0.00000000
    1   -7.49791780    7.49381968    3.79829956      7.61440271    6.67489333    3.41802836      0.00000000    0.00000000    0.00000000
    8   -2.75574628    2.04952191   -6.26027940    -14.37897564  -12.12407814  -10.31391301      0.00000000    0.00000000    0.00000000
    1   -2.08808728    2.31606891   -6.95537040      5.15275189    4.14462988    4.92644316      0.00000000    0.00000000    0.00000000
    1   -2.95554228    1.22276191   -5.73443240      3.40776479    3.13015875    2.55698646      0.00000000    0.00000000    0.00000000
    8    7.10872647   -0.79673087    2.81798186  **************23623.76954119 2522.33002269      0.00000000    0.00000000    0.00000000
    1    7.46397147   -1.19351787    1.97162086     22.97120601  -54.62104990  -70.17511162      0.00000000    0.00000000    0.00000000
    1   -7.49999053   -0.46276587    3.67549686     14.31614435  -25.69680569  -21.65488435      0.00000000    0.00000000    0.00000000
    8    2.55301346   -3.49510232   -4.48885493     11.57532334    2.77368221    9.17947403      0.00000000    0.00000000    0.00000000
    1    2.61910446   -2.49854832   -4.53864693     -2.73057364   -1.69641086   -1.74439492      0.00000000    0.00000000    0.00000000
    1    2.98084346   -4.21814432   -3.94650993     -4.63633086   -0.55524692   -1.12813683      0.00000000    0.00000000    0.00000000
    8    4.08239142    0.52131394   -7.44861313   -192.65725491  158.43643448 -832.23596870      0.00000000    0.00000000    0.00000000
    1    4.93819642    0.46964394    7.03670587      0.25570508    6.86237071    3.75075406      0.00000000    0.00000000    0.00000000
    1    3.16308742    0.13888194    7.45869687     -8.80955926    8.57510196   -0.47232031      0.00000000    0.00000000    0.00000000
    8   -4.46075672    0.93907446    1.43353444      0.15347610    2.57707576   -6.54305895      0.00000000    0.00000000    0.00000000
    1   -5.37185072    0.52823846    1.46655444      0.43978479    0.16503668   -0.35964794      0.00000000    0.00000000    0.00000000
    1   -4.08302672    1.85992546    1.53006744     -2.66757312    0.63035035    1.90056332      0.00000000    0.00000000    0.00000000
    8    7.42252213    1.82983920    1.51012326     -8.88058594    1.33148243   13.18664355      0.00000000    0.00000000    0.00000000
    1    6.80533613    1.30979320    0.91969926     -1.46040354   -3.44884853   -2.64057756      0.00000000    0.00000000    0.00000000
    1   -7.48502687    1.98693420    2.49335226     -0.43972119   -6.53485987   -1.41691480      0.00000000    0.00000000    0.00000000
    8    2.55477292   -1.44641745    5.16678763      2.00087958    9.66399757   -3.39998369      0.00000000    0.00000000    0.00000000
    1    3.54469792   -1.30707645    5.19127263     -1.47268770   -4.57044821   -0.33440091      0.00000000    0.00000000    0.00000000
    1    1.74555592   -0.85894345    5.16376863     -1.20655810   -3.67339888    2.57631539      0.00000000    0.00000000    0.00000000
    8    0.94171259    6.01900995    1.63968252  -2061.09621596**************-3151.35618244      0.00000000    0.00000000    0.00000000
    1    1.93024959    5.97727895    1.78466352     -6.47087435    8.16345801   -5.63702777      0.00000000    0.00000000    0.00000000
    1    0.13325659    6.11902895    2.21964952     12.80996256   -1.09123966   -6.55151756      0.00000000    0.00000000    0.00000000
    8   -4.99203194   -0.31462277   -2.92822219     11.04044280    5.18192495    2.71447045      0.00000000    0.00000000    0.00000000
    1   -4.07375694    0.08083623   -2.90951819     -2.47400934   -0.15769566    0.83741485      0.00000000    0.00000000    0.00000000
    1   -5.37763394   -1.23697277   -2.95164519     -4.58298656   -2.66986010    1.11494129      0.00000000    0.00000000    0.00000000
    8   -3.55190878   -7.14357084   -3.36555625     -8.75790367   -0.02115698   -1.33952234      0.00000000    0.00000000    0.00000000
    1   -2.62521678   -7.43889784   -3.59791725      6.71526073   11.64981325   18.80570133      0.00000000    0.00000000    0.00000000
    1   -4.43746778    7.41061716   -3.23515925     -1.95085234   -6.22282154    0.55172553      0.00000000    0.00000000    0.00000000
    8    5.31143249   -3.35164570    0.98909591     -2.34399944    6.37881742  -10.91163281      0.00000000    0.00000000    0.00000000
    1    6.24862149   -3.49161270    0.66963991     -0.72693469   -4.95623724    6.61161131      0.00000000    0.00000000    0.00000000
    1    4.87745449   -3.07652470    1.84696491      1.52895640    2.04871146    0.40202187      0.00000000    0.00000000    0.00000000
    8   -7.47979928    6.56822361   -2.01191898  -5448.04379093 6164.69535500 -112.21508719      0.00000000    0.00000000    0.00000000
    1    7.37404872   -7.47103439   -1.77616398    -23.70261089   85.91403952  -61.87504497      0.00000000    0.00000000    0.00000000
    1   -7.50540828    5.69586761   -1.52375198    -26.43834078   -9.75149829  -50.36789842      0.00000000    0.00000000    0.00000000
    8   -4.81302518   -2.04654670    0.18789355     -6.00391391    0.21786362    6.38686111      0.00000000    0.00000000    0.00000000
    1   -4.09048318   -1.50305070   -0.23931845     -0.08584357    0.47189137   -0.14623304      0.00000000    0.00000000    0.00000000
    1   -5.13459618   -2.99136870    0.12568355      0.80681776   -1.90942756   -1.03615019      0.00000000    0.00000000    0.00000000
    8    7.37805326   -0.38297494   -4.53919024  -3383.79244163**************-6859.45505226      0.00000000    0.00000000    0.00000000
    1    6.80762926   -0.07835994   -3.77643624    -11.88442544   26.50417430    7.90001588      0.00000000    0.00000000    0.00000000
    1   -7.53726474   -0.15619594   -5.50943124    -13.70015194  -22.72476941  -43.86329278      0.00000000    0.00000000    0.00000000
    8   -6.77279083   -4.43308035    4.70462781  10601.53714091 3614.00206368 3697.13418151      0.00000000    0.00000000    0.00000000
    1    7.49360117   -4.78026035    5.28879581    -16.95321694  -11.13571211  -15.51822225      0.00000000    0.00000000    0.00000000
    1   -5.98859783   -3.82349035    4.82043081      1.96813111   -5.17345445   -0.09529330      0.00000000    0.00000000    0.00000000
    8   -4.37001111   -3.47354964    7.46293567  -5740.07856127**************11417.65538639      0.00000000    0.00000000    0.00000000
    1   -3.65812711   -2.77133164    7.45408867    -12.84571930    7.40000537  -81.99950949      0.00000000    0.00000000    0.00000000
    1   -5.36992011   -3.48424764    7.45708067      6.64962063  -36.08655591   -1.75437545      0.00000000    0.00000000    0.00000000
    8    6.54293773    2.52851229   -6.52706760   -275.93661255    8.47381694  -92.02243266      0.00000000    0.00000000    0.00000000
    1    6.38808473    3.20411529   -5.80627060      4.70966975  -10.82851117    6.28446752      0.00000000    0.00000000    0.00000000
    1    6.52889373    2.52741629    7.47304840    -14.96135320    5.70842288    4.08425059      0.00000000    0.00000000    0.00000000
    8    1.83313999    0.84405801   -4.74776195     -9.19353662   -2.93036902    6.03157792      0.00000000    0.00000000    0.00000000
    1    1.28769399    0.01010601   -4.66422895      0.48477001   -0.25633275    0.21015511      0.00000000    0.00000000    0.00000000
    1    1.65340899    1.82725501   -4.71631895      1.43332642   -0.14284709   -3.81159752      0.00000000    0.00000000    0.00000000
    8    5.03702806   -5.42190396    7.15583553     33.77484320    6.92128049   11.43508908      0.00000000    0.00000000    0.00000000
    1    5.13732006   -5.87540196    6.27025753     -7.87282604    7.01647405   -3.98615240      0.00000000    0.00000000    0.00000000
    1    4.67566106   -4.54740296    7.47929853     -8.83452574    0.09352374   -6.65838189      0.00000000    0.00000000    0.00000000
    8   -1.78647781   -0.13017950    5.89644990     -1.86751446   -7.49702096   15.64351597      0.00000000    0.00000000    0.00000000
    1   -1.11121581   -0.15084650    5.15918290     -0.91520261    4.76555631   -7.25315983      0.00000000    0.00000000    0.00000000
    1   -2.22893881    0.57772950    6.44695790     -0.13472866    7.03414145   -6.04869212      0.00000000    0.00000000    0.00000000
    8   -7.35007051   -3.94960256   -2.92281472      2.38647032   -4.54900777    8.15358010      0.00000000    0.00000000    0.00000000
    1    7.49885749   -2.97770156   -3.10323672     -2.06807782    7.91982111   -8.15628992      0.00000000    0.00000000    0.00000000
    1    7.46447949   -4.80746356   -3.40203272      0.52039407    2.35602660   -0.91036713      0.00000000    0.00000000    0.00000000
    8   -2.09928228   -5.22485609   -1.01378572    -15.37001893   -1.13848883   12.40757087      0.00000000    0.00000000    0.00000000
    1   -2.08283828   -4.49156809   -0.33409072      1.64761882    0.36341170   -4.68234642      0.00000000    0.00000000    0.00000000
    1   -2.44223528   -6.16344809   -1.05112772      8.96543850    7.53951909   -7.70079163      0.00000000    0.00000000    0.00000000
    8    5.64565412   -2.64468695   -6.08387943  -1159.65177606  304.39863555 -111.37369815      0.00000000    0.00000000    0.00000000
    1    5.29450212   -3.40259495   -5.53412143      2.83112584   -0.99587919    3.30008100      0.00000000    0.00000000    0.00000000
    1    6.45447512   -2.47982095   -6.64832043      3.61927495  -34.01355680   21.87780274      0.00000000    0.00000000    0.00000000
    8   -6.44636553    5.26796502   -2.03345409   5843.83921172-7378.98650566 -101.51272013      0.00000000    0.00000000    0.00000000
    1   -6.77400553    5.64999802   -1.16935409     57.71437969   11.93175189    9.69794099      0.00000000    0.00000000    0.00000000
    1   -6.58221753    5.46483802   -3.00440809     -7.48027063   15.81010889    8.38228066      0.00000000    0.00000000    0.00000000
    8    1.32545326    2.54307639    7.07451444  33524.0679332335306.30650790**************      0.00000000    0.00000000    0.00000000
    1    0.39188426    2.65495639    7.41495144    -90.15881377   -7.64684993 -117.89626035      0.00000000    0.00000000    0.00000000
    1    1.74820326    2.23552539    6.22206944     -1.86588564    2.38701026    3.18393947      0.00000000    0.00000000    0.00000000
    8    3.44840511    3.37143912   -6.89037066  ************** 3362.7068797539540.53518682      0.00000000    0.00000000    0.00000000
    1    3.67359911    3.76704212   -6.00000466     -1.72399778   -9.47472733   -5.02880734      0.00000000    0.00000000    0.00000000
    1    3.73985011    2.57299912    7.58282834     30.35744216   60.97325208  -47.75617333      0.00000000    0.00000000    0.00000000
    8    6.92333791    3.10414533   -2.72408879     -8.48008879    4.01959779   12.44253166      0.00000000    0.00000000    0.00000000
    1    6.00320891    2.71585433   -2.77467479     -0.18835905   -1.64545993   -3.63824304      0.00000000    0.00000000    0.00000000
    1   -7.48112109    3.62499333   -3.33565679     -0.40139817   15.18397407    6.67106671      0.00000000    0.00000000    0.00000000
    8   -1.14474330   -1.87814110   -6.87348731  -4240.15621366-1843.62451957 1740.31845990      0.00000000    0.00000000    0.00000000
    1   -1.27747930   -1.09867210   -7.48567731     -7.87785365   12.93980813  -12.32196046      0.00000000    0.00000000    0.00000000
    1   -0.96971330   -2.85664610   -6.98238831     -2.28346729  -16.14047013   14.88071397      0.00000000    0.00000000    0.00000000
    8    6.04890702   -6.19433872    1.68469485      5.05146615   15.04860823   -6.24085212      0.00000000    0.00000000    0.00000000
    1    5.18899702   -6.53630672    2.06361485     -0.03472766    2.78770109    6.27412030      0.00000000    0.00000000    0.00000000
    1    6.89131702   -6.60098572    1.33121085    -10.90821833   -1.26964415   -3.24283832      0.00000000    0.00000000    0.00000000
    8    6.52213121   -6.74079542   -1.79565026  **************-1581.43448243-7306.10985854      0.00000000    0.00000000    0.00000000
    1    6.12535221   -5.85995342   -2.05381826      7.22323476    5.74809948    6.55925985      0.00000000    0.00000000    0.00000000
    1    6.25916421    7.49785158   -1.20306526    -29.66191648   -7.74717271   -3.07596087      0.00000000    0.00000000    0.00000000
    8   -4.74507793    4.86060553    1.47545771      6.07618627   -4.56858433   16.81039716      0.00000000    0.00000000    0.00000000
    1   -3.75259593    4.88865853    1.35646571     -4.41116297    2.20136037   -0.40347271      0.00000000    0.00000000    0.00000000
    1   -5.37410393    4.70794853    2.23768371      4.41051772    0.65652442    0.10352602      0.00000000    0.00000000    0.00000000
    8   -6.77032809    6.19886672    6.09020189    346.83259611 -320.67293640  -75.67022085      0.00000000    0.00000000    0.00000000
    1    7.50017491    6.68472672    5.60880789    -15.98309687  -21.68029055   -0.21988199      0.00000000    0.00000000    0.00000000
    1   -6.41086609    6.18258372    7.02320189      0.56789256   12.54082825   31.28891286      0.00000000    0.00000000    0.00000000
    8   -1.06849084    3.51041468   -4.51767997     14.10900020   -2.30404559    9.11310637      0.00000000    0.00000000    0.00000000
    1   -0.85285684    2.89828768   -3.75691097     -4.15068714    2.49275881   -0.87482125      0.00000000    0.00000000    0.00000000
    1   -1.81057284    4.14074868   -4.74562797     -2.27320850   -0.01075553   -1.43032129      0.00000000    0.00000000    0.00000000
    8   -6.05926733   -0.08261669    5.18133754    -16.50529684   14.27155243  -18.44713512      0.00000000    0.00000000    0.00000000
    1   -5.68080433   -1.00821469    5.18035354      6.18281152   -7.18492613    2.57382173      0.00000000    0.00000000    0.00000000
    1   -6.97449333    0.32026131    5.17708954      9.51977766   -1.73590322    7.45707744      0.00000000    0.00000000    0.00000000
    8    7.53766615    1.08357625   -4.22944590   3527.3219654132567.00564633 6921.07634305      0.00000000    0.00000000    0.00000000
    1   -7.32923585    0.12519625   -4.48194990   -122.90060483 -261.09032942  -13.62408741      0.00000000    0.00000000    0.00000000
    1   -7.14793085    1.68404525   -3.49422090     -2.79054728    1.46922081    1.86217925      0.00000000    0.00000000    0.00000000
    8    1.70657660   -4.10381498   -7.17763143    -17.64149246   -8.73606137  -13.42315114      0.00000000    0.00000000    0.00000000