 BEGIN_INFO
   #
   # This is a XCRYSDEN-Structure-File
   #
   # aimed for Visualization of geometry
   #
   # Launch as: xcrysden --xsf HICOLM.XSF
   #
   #
 END_INFO
 # estrutura final
CRYSTAL
PRIMVEC
      20.00000000       0.00000000       0.00000000
       0.00000000      20.00000000       0.00000000
       0.00000000       0.00000000      20.00000000
PRIMCOORD
  306    1
    6    7.50234822    7.43482617    7.57448517    -26.73561933   -7.11863483    9.05529152      0.67801663   -1.68079248   -0.91979191
    6    8.86470040    7.42464294    7.63305949     29.13192381    8.59317497   -0.20437356     -0.66890112   -1.82593642    1.78778623
    1    6.92874454    6.80609642    8.23577418     -0.74168913   -3.75558104   -1.02717583     -1.75584092  -12.45305808   15.30145836
    1    6.98808211    8.29189121    7.22950896     -7.13704188   12.32606630  -10.15625401      7.39517184   18.67719101  -11.79363725
    1    9.45182371    8.27142774    7.30628604     -1.83551173   -0.75419154   -2.85147798     -5.29360338    9.61936464  -32.35313380
    1    9.35827155    6.81109294    8.34589110      3.86439060  -10.67442247    1.93109256    -11.54736452  -16.28774395   21.49493890
    8    4.60161879    7.08511788   -9.27821362    113.20250337  -40.61948858  -47.58468769     -8.76690938    2.35364361    2.50249400
    1    3.94037600    7.71137852   -9.17266332    -64.74443953   -9.59700033   49.72494088    -10.91798114   36.95801037  -54.88306149
    1    4.59059827    6.24452656   -8.74087735    -52.01242639   39.20880094   -0.07479852    110.31146142  -63.80281501  -43.90845963
    8   -6.13555724   -6.27561840    8.68095991      3.37577723    4.82553300  -23.54094627     -2.78602887   -4.76602032   -5.67719364
    1   -6.79806722   -6.94167914    8.46690165     -1.75115223   -2.85702083   18.83815775    -87.93603419   28.11356762  124.16241203
    1   -5.56145096   -6.33753333    7.91131128      5.74161731    7.00539210    5.41313478     82.24537715   90.16219715   52.37479451
    8    7.36292497   -7.53402364   -6.97197254     46.29732619  -13.09263362   32.70831970     -9.15572687    5.74023561    5.39380757
    1    6.45787943   -7.29762290   -7.01749329    -23.74743556    7.14298333    6.08485989    -30.32327649  -63.10292393  -85.03806124
    1    7.61123428   -7.37874102   -6.00817868    -19.51337267   -0.44376102  -47.83552174    155.39287798  -54.89084371  -20.16746706
    8    3.61742261   -8.74657816    4.56416851    -15.15071636  -32.61779052   22.36139806     -3.45945911    5.34575111    4.85785059
    1    3.11096635   -9.37897051    5.13967874     20.16383361   14.87802159  -20.88533927     75.22160695 -143.61489877  -63.90498139
    1    3.19774543   -7.92697922    4.79742432     -3.79403485   16.87096131   -1.07211109     56.76120773   71.67875353  -62.83841368
    8    7.27604530    9.77008296   -8.63295373    -18.67953917  -14.67592391   10.11824478     -6.95888168  -18.72295382    2.59468197
    1    6.54165364    9.18540513   -8.89638933     11.77510605   10.33025842    5.44561798     35.26083876   38.43465167 -129.34995547
    1    7.27021888    9.71511598   -7.66103594     -2.22470598    5.55808571   -9.90465168    107.11109525  108.33012729   20.88760501
    8    8.57492950   -7.34436584    0.97875777    -13.81128067  -45.55432306   72.25151791     10.92659552   -3.83360416  -11.66838604
    1    8.62379535   -6.82064662    0.19107570     33.93668679  -22.97948309  -28.02197352    -42.40639152   60.65234407  -15.48624688
    1    9.15630073   -8.18909974    1.00044238    -16.36013587   67.56752378  -43.05911803    -67.23358112  -74.80024743  141.56839599
    8    0.24524808    6.72907826    6.50762365    -22.07758725    5.67079493    9.75252033     12.37420469   -2.99040454    1.60089492
    1    0.81768764    6.66060527    5.72610647      7.48159540    0.08119388    8.92649052    -72.42213536   96.86950316  -70.75976078
    1    0.63012851    6.15940010    7.19095795      9.81040969    3.83739600   -8.87114455    -46.55002398   88.49531246  115.80500397
    8    7.81975325    1.10159934    3.99589725     18.27714096  -45.76308792   -5.10690860      9.58264806    9.42928896    0.47460325
    1    7.78597673    2.03313016    4.03449185     14.13993436   28.46757866   -5.81075472    -96.61379716    7.44998911  -15.93481220
    1    8.75403575    0.84597172    3.74328201    -29.56376878   20.89194354   14.29158712    -19.98474599 -168.73517128   32.07113348
    8    8.85549512    0.07374577    9.66618923      4.81654926    7.99459180   31.20299175      0.92184906  -10.54572165   -3.80967005
    1    9.47304177   -0.03688855    8.93305028    -18.42673909   -8.96702726   -3.40391903    112.92212917   93.49105286   56.96766969
    1    8.13653481   -0.55357870    9.55587837      9.88252264   -3.13910872  -18.86743917    -70.49849481   31.35159162   76.97384501
    8    4.13194929   -7.34439793   -6.30358530     23.30870991  -20.11525921   40.24059266     -6.69864242    0.18940162   -4.89684066
    1    3.61564261   -8.18123105   -6.28875467      5.24335198   23.31462747  -16.97334760     62.79997319  -37.47222168  126.47702793
    1    3.88408372   -6.85250579   -7.05919287    -23.96492448    0.48828416  -23.11197707     35.52322989  102.87553359   41.61443535
    8   -9.03278973    3.09991007   -7.78232223    -13.00219456  -44.85977546  -37.66236446      0.90258488   19.63775775    1.72672212
    1   -9.89477635    3.46880685   -8.04327742     14.45330380    8.47330795    9.80028326    -23.12039498  -93.31185096 -130.63851849
    1   -8.67258843    3.67580204   -7.15641726      0.44080150   37.61966513   20.33474656     76.83954491  -61.78398806   51.06893178
    8   -8.40091320   -8.84892271   -5.56323352    -24.96045548    8.22189138  -27.05700242    -17.64809306   12.31406969   -7.29842465
    1   -8.38841632   -8.85996567   -6.52262610     32.00086857  -11.96819424   -6.00031549    124.65515626  -63.63754836   -5.88067434
    1   -9.25598889   -8.45781358   -5.49556498    -15.58399103    6.20594634   33.04654335     14.69477439   -5.13015882  125.78671335
    8   -5.44210054    2.64581487   -8.10384794     35.54787507  -53.53919524    4.34583387      0.55838386  -10.59507022    7.89914968
    1   -6.16521914    2.30309695   -7.64111024    -40.55016284   13.41048671   11.37461215    -28.35727743   60.63756426  -32.49296254
    1   -4.86542767    1.85828960   -7.96975971      7.93964308   36.39602543  -16.63003134    140.27292253   96.35849642  -74.39508983
    8    6.82585191    1.03769582    0.51031777     -6.01506948   46.70593762  -36.61807154     -3.30204712   -7.09211493   -4.65111632
    1    7.57311312    0.59349696    0.91652847    -26.73428866  -24.15958588   18.45733105     87.35382125   86.72342712  -44.04098522
    1    5.95033468    0.66356970    0.73518812     29.11686283  -19.22556890   20.18674161    -74.24206454   59.36053832 -114.43219784
    8    1.12675812    9.74675642    6.79554516      1.76840915    8.15887781   -8.65028881    -11.11365850  -21.67478456   -4.59271847
    1    1.30345054    8.79797131    6.73975509     -6.51831630    0.32071213    6.16527312     53.98530047    3.21868547 -132.07555419
    1    0.51753391    9.85487278    7.53202005      4.81050904   -9.81991485   -3.75431165    -10.63478792  126.89553719  -24.23122489
    8    0.75463003    5.89891144   -9.96368725     14.50971092   70.32948562  -89.92407674      2.35912679   -1.62006406   10.81559810
    1    1.50309619    5.40990758   -9.61145447    -37.54430629  -25.70420513   50.77423203     74.99299962   -4.18855802  -56.42135162
    1   -0.10721996    5.88818894   -9.55109495     18.98739762  -46.33414006   45.85767367    -81.21175969   72.70985358  -68.68286819
    8    2.57783950   -4.76629716    7.40657228      9.75955237   -2.05565572  -13.00256581      2.91344532    0.66487749    6.11308430
    1    1.82863327   -5.34406068    7.51692744     -6.55075115   -5.07323661   -1.44692269      7.07462260  -39.02468382 -139.01282466
    1    2.73448992   -4.41054371    8.26301881     -3.46476549    7.95651202   15.18464438     81.67575537   99.03723906  -53.64899238
    8    6.80640621    1.64031436   -8.20299321     34.58437050   56.71441083   13.72529978     -6.52887815   -8.14913392   -1.04461844
    1    7.15397875    0.95349674   -8.79863263    -40.86031412  -16.57049337   19.00031801    122.40345102   41.03511020  -21.57623046
    1    5.97542324    1.44780192   -7.73634807      7.12190031  -41.59521164  -34.26029365    -42.92443897  112.28647706   28.31770609
    8    3.44757656    0.38246110   -5.14639046      0.36392892    9.83321457    5.90414208      5.75460676   21.23336372   10.31766145
    1    2.89908039    1.16553214   -4.93824088      6.25360510   -5.30484024   -3.50561314   -124.78437358  -49.84592557  -18.55476111
    1    4.29834101    0.57245488   -4.73473718     -7.09226294   -0.49709666   -0.74972626     43.24445347 -116.23534983    3.60609621
    8    2.44061705    2.83017015    2.65797092      1.08232186   -3.99558577   13.32761294     -7.06642554    0.70660483   11.97085196
    1    2.40570368    2.20533457    3.37730252      5.43613676   -3.67755684   -5.91108081    105.69190107  -81.12150546  -39.76702996
    1    1.71312538    3.40302602    2.90681694     -5.56865372   10.18981249  -15.73054219    -16.10006081   45.20978975 -124.14125902
    8   -6.92732372    9.54060941   -8.26166839    -45.86660786  -88.56466696   22.22088525      6.39910753    6.06300012  -14.19590328
    1   -6.48839793    9.09313723   -9.05050810      9.99645107   76.23920859   23.73486407    -51.36271053 -134.32819761   17.89732731
    1   -6.79567772   -9.52665414   -8.09472069     40.45034043   11.77697679  -45.34719569     15.11367915   32.61763147   69.00479397
    8   -5.56210168   -6.15903854    0.76689751    -44.48943850   98.48907249  -21.59352707      1.37864519   -9.13396623   -0.99931417
    1   -5.90967609   -6.71781714    1.49471073     61.20092677  -39.87642889  -36.21639477    -33.53816214   52.16468256   60.98240739
    1   -4.79463172   -6.37533327    0.18501084    -17.36795265  -59.38776430   57.02594313     10.12701500   81.37874062  -43.30169844
    8    2.04029863    2.88147589   -4.79733817      2.40662940   -9.89239377    4.03617895     -0.68366118    1.18052328    1.93669501
    1    2.17299842    3.78173576   -5.10077797     -0.77696870   -0.31540967   -4.60477750    159.93227047  -19.56073914   -4.38904288
    1    1.12388255    2.85022188   -4.51294878      1.43438092    3.17773492   -0.76953068     13.52939437 -129.58019276   33.63875122
    8    9.54581902   -5.21334559    6.93189930     15.97837217   47.18718758   37.39727351      0.80301746    1.12825154   12.64542022
    1    9.73717413   -4.28657409    7.15063050     -4.14017792   -3.78017479  -42.18166802     15.71271990   21.85970723 -150.24436812
    1    9.55302799   -5.46596512    7.85595873    -11.91357160  -47.91932164    1.21956070    -55.12015701  -96.87143698  -41.11920897
    8    7.91942474    6.59136147   -5.17702481    -38.60202081    3.20624879  -34.90888059     -3.90811348    1.58635941    4.69833288
    1    6.98240846    6.50128592   -5.52340792     39.03894946   11.95594516    6.55683974     52.11371421   77.29618933 -168.69204770
    1    7.86017375    6.20158779   -4.33011342      2.30937341  -11.90228118   24.90220087     94.26934038    9.71156313  -16.05869182
    8    0.72244808    0.16375476    0.16227420      8.47376460    4.06043653   16.62850985      8.12377144  -11.73028374   -3.64079812
    1    0.47723245   -0.39933496   -0.55083346     -5.66891528   -8.87431615  -14.33463987    -71.06426548   76.76636664  -38.99860088
    1    1.44041850   -0.31076079    0.59566119     -1.41030063    6.08939168   -2.21069446     29.10638421  113.92929777  103.21688854
    8   -8.72179142    7.06170805    9.86378026     36.09343055  -20.31874714  -22.37667180     -5.69875006    1.78223439   12.35810575
    1   -9.67476190    6.95614126   -9.97441043     16.44142219   23.33724814   24.73947129    -47.45757613  -10.02397255 -113.55020943
    1   -8.29428941    7.66109660   -9.48985255    -42.17063167   -6.15108224   -0.60077979    124.01680481  -29.27921937  -50.82547252
    8    2.10556749    1.98415396    8.53536105     19.18524686  -42.80882134  -54.34287897    -12.47508481    6.92114504   -4.21773448
    1    1.58490654    1.68196002    7.72776529     19.94827341    0.93469934   35.51568180    111.68491240 -140.30149312  -29.29370375
    1    1.58607689    2.62912359    8.90134459    -37.88641976   38.12410896   24.43986358     32.66989857    5.95383667   64.08310448
    8    4.14455972    3.38604585   -9.09860010     24.97866962   32.88527422  -24.57152395     -3.44056351  -14.17676435    3.00041283
    1    3.58400410    2.66799776   -8.85228347     -8.13700075  -17.13845427   -9.36447869    -15.38631060   15.65833409   94.89221636
    1    4.37610381    3.30665225    9.94434463    -16.05961335  -13.57815078   33.56490424     80.74405381  142.67930985    2.37792593
    8    1.72179151    7.32966218    0.62413396      5.30871086   -7.73523125  -16.87489771     -0.04624896   14.53028518   -3.57124847
    1    1.78448530    7.19703593   -0.33536827     -3.79399244    1.11044576   13.81056727    -48.50702585 -126.70595892   12.99329273
    1    1.86335664    8.27734858    0.70881406     -2.00384025    9.33530665    3.34847875     20.94241999   -3.89674467  146.73722594
    8    9.73010891    9.44327826   -9.64848147     12.89429987   22.64364756  -28.35537150     -0.95677854    4.24125312    7.54424399
    1    9.10560597   -9.80740513   -9.74431614      5.24336718  -21.42857719    9.87742355     32.57205810   13.76687834 -137.86941169
    1    9.56537375    9.10453041   -8.78492986    -11.57022845   -0.04616605   14.10711997     36.41521279 -139.32246904  -19.27065771
    8    9.75187513    0.36054591   -5.17503135    -46.62068341   -0.74838402   16.32839896      5.58095820   -1.81233157   -8.42932176
    1    9.57267846   -0.04071458   -6.05906523     44.23581101   16.13633235   21.61015955   -150.54848446  -67.73925563   25.23196607
    1   -9.31809087    0.54499146   -4.98754883      3.18814737  -12.50328639  -38.90630531      1.06951988   17.85959846   99.94449824
    8   -9.04810722   -6.95743420   -8.30558995     -6.34113342   29.76284012   29.35487407      7.07503873    3.20586296   -4.31749480
    1   -9.10665521   -6.71526364   -9.22251013      0.14131800   -8.29907324  -15.40129512    -40.02464351 -145.70594217  -47.65816967
    1   -8.87991531   -6.07236150   -7.89586063      1.97781904  -30.10105310  -10.63045750     18.46284403  -67.99415845  125.92591614
    8    3.84538138   -9.88059542   -8.08878400     -8.93096194  -25.42489163   -1.30956037     -1.12466823   -0.33325725  -12.04399343
    1    3.33386497    9.40621262   -8.49087772     -0.25790404    5.71002597   12.22758393    -36.85179871  -59.01651181  145.17160603
    1    3.94324709   -9.29211185   -8.82234175      5.32007087   23.06680373  -11.06598910     75.63709549   85.56918156   69.17782927
    8    0.05750952    0.14394886   -7.81303047      7.11518891    5.32211196   -8.33497452      6.61999290   -3.76636254    9.87861770
    1    0.92387531   -0.03043588   -8.20054386     -5.19277197   -2.36665977    6.40292549    -37.14993798   65.43223143 -129.34923728
    1   -0.01512270   -0.48715546   -7.09899978      1.16687437   -2.46992195    2.71730909   -122.16804873   16.41275008   36.89160293
    8    4.48650919    9.34874913    0.97216818      0.05094287  -32.53515783   -3.54826452      9.06177193   -2.08902602   -2.16001469
    1    5.09024709    9.89766849    1.45096624     12.57985732   11.57505392    6.98818866    -76.22470499   97.43856202   16.90103486
    1    4.98905795    8.51216754    0.86170523    -12.80216112   23.61631855   -0.04089641   -110.67873261  -76.48861896  -71.68977916
    8   -5.08522320    6.80317404   -9.69722097     -2.70710904   33.48668278  -62.09347789     -1.07530968   -2.89620262    8.79064263
    1   -4.58020798    6.71989954   -8.89601042    -23.03928745  -28.98767479   22.62525642    111.45905566   31.46435328  -38.44591058
    1   -5.90101426    6.27155925   -9.72584692     22.24044008   -6.32222846   40.39487944    -46.57409079   65.32268332 -113.11963045
    8   -9.72858784    4.03271235    3.43208604    -10.28929438  -16.25580789   23.49130708      1.43300525    9.76158766   19.08369539
    1   -9.56224880    4.95256361    3.37510469      4.67361049   21.02789272   -7.36672591     56.57286639   -9.06096181  -85.01069924
    1    9.87524454    3.95690974    4.32683600      3.94946876   -5.21976293  -10.27082807    -24.05717688 -146.32975418  -15.30408749
    8   -8.41084203    7.60213225   -4.72690992     60.40852062 -101.28865548  -71.97971336     -0.70335397   -0.36841111    6.66912050
    1   -8.04922840    7.53119797   -3.81701579    -52.88628575   61.08521037   -0.75414505     80.82469407  -54.09215182  -32.27906016
    1   -9.06665409    8.23118269   -5.00654997     -5.54759178   37.71146650   70.97814309    -51.83609667  -51.00081041  -44.11643947
    8    3.15780008    8.68786798    8.94749879     -1.08386359   21.51220079    8.18745724      8.43333205  -11.32655243    6.84717872
    1    2.53496737    7.94064309    8.98493615     25.07561233   -7.06881552   -1.06064459   -105.32377393   51.28583846  -28.61731723
    1    4.06493917    8.37587632    9.14842442    -25.53910642  -18.31562840   -8.08354402     49.43647587  124.62998181   29.56841875
    8   -5.32717496    9.38767265    9.21316274    -27.35895559    6.16885147    8.01139095      3.43701139   -7.74675102    4.32744417
    1   -4.40746081    9.55219995    9.02411857      6.52318819  -10.79361394   -4.19491708      3.67592330  125.53580081   21.50029932
    1   -5.48004453    8.43611122    9.08833040     18.20041317    3.56707069   -0.01339402   -147.53305960    2.63434584   24.46994547
    8   -9.92733599    5.84260650   -7.54063911     27.33486169    3.63275016   -2.96632217     -7.63641091    1.11017245   10.40624904
    1    9.16766634    5.92269519   -7.27966915    -16.19915559    7.78096785   13.60344461    -38.79105824  -83.22213022  -61.89762900
    1   -9.43088873    6.46054172   -6.97466124    -14.95524334   -9.06066594   -3.94616426    132.79296794    3.54355498  -92.76724043
    8    8.90125412   -6.66751105    9.40381598    -27.87556348  -28.75158098    8.05070120     -1.78122556   -9.32021094    4.25553345
    1    8.60225844   -7.03084030   -9.75826114     20.04048752   17.15215295   20.21236021    110.70645565   51.19769935   60.60398751
    1    8.26202536   -7.14723586    8.87194264      8.55427852   14.29148005  -26.47091101     55.26152828   53.24697010 -103.16553524
    8    2.27181413    6.99803459    4.80068675      9.47617284  -17.65839815  -22.39756621      2.89961093  -12.04088496   -5.56430015
    1    2.31796442    7.02596316    3.84287221     -8.14510225   15.85267319   -2.07125073    -68.89058836   98.57298248   -9.51297510
    1    2.71718481    6.15919718    4.94364391      9.10356606   -3.29529040   17.93440144    -17.48418938    0.70957490  153.83176085
    8    3.98472456    0.36245274    4.19436879    -45.23956790  -43.90880522   -8.23199140    -11.06448942    5.32677649    2.72216370
    1    3.39768977   -0.40053570    3.99396119     48.50260336   -4.08879538    5.82181175    165.78043240 -104.74933043  -15.84824396
    1    3.29811781    0.97608196    4.17623042      0.62359373   46.94986695    7.97046352     50.03953116   32.92782456   37.16446567
    8   -7.26214447    4.19836877    8.53394959     32.18130646  -38.82627510  -14.74396721    -10.40486487   10.45577859    7.33530629
    1   -8.17433967    4.38952222    8.38369707    -16.76794988   24.02359834   10.84915523    -23.18932973  -81.25246998  -61.51287497
    1   -6.87536066    4.87761371    9.08246844    -20.08880284   11.42448435    1.63898787    135.12047975  -81.07083530   14.22341640
    8   -4.60591155   -6.08832610    5.47734968     22.62946452   22.28846325  -14.24816522     -6.15654179    0.24182958  -13.44483590
    1   -4.26458203   -5.39465771    4.88260514      0.01635097  -11.96913188   17.59900538    136.97284794    5.98201590   79.98115480
    1   -5.42693217   -6.29297570    5.07116829    -26.71130620   -9.86170937   -2.02960625    -27.66748779  -64.18350686   82.82797460
    8    2.40009306    5.38460934    7.70754834      3.46389996  -63.69271921   32.59640992      0.89274646  -15.18754647  -10.74832681
    1    2.44636239    5.12483875    6.82389674      6.43033462   17.17345371  -48.84607685      9.62012234   92.43235078  -27.48956252
    1    2.47286016    4.47737626    8.09249764     -1.25064389   42.93442763   12.85115697    -18.65230662   59.77707429  178.87443921
    8   -5.09943502    7.48017438    2.96053220    -37.84465667  -66.15508513   26.64801722      5.61203738    9.53418872    0.61349717
    1   -4.46064169    7.79955529    2.34137790      3.03903279   47.58425695    9.06804966     11.64663250  -77.04388370  -80.60252694
    1   -5.55377955    8.14122481    3.52652943     35.61502467   18.02184666  -32.30121896    -75.69606823  -94.75423297  104.88732737
    8    0.75214028    3.14710277   -7.94907105     53.81357372   54.31294852  -51.66467760    -10.05536169   -7.47040727   -3.60634375
    1    0.77811445    2.40416675   -8.60780271    -36.63516230   -1.42032768   59.43291191     97.78227704   77.07252174 -113.39623414
    1    0.21267185    3.04396414   -7.17588538    -20.09975482  -53.16984531   -9.29969124     34.74881578   44.42216165   69.26770641
    8    3.35260380    4.10463393   -0.35638411      2.35676461   13.05551593    7.86794495      4.72610322    7.24145717   10.57641954
    1    3.49530164    5.05045532   -0.34456920     -1.84569235   -0.17151019   -9.23984668    -19.06588350    9.45504210 -132.01127711
    1    3.49835418    3.88859522    0.56153344     -2.20782345  -12.65557167    4.64126023      9.67358157 -147.64021895  -28.48237638
    8   -5.83151285   -9.73376174    0.99643684    -35.10440665  -64.42312922   37.82061741     11.80439633   -7.61593230   -3.21183498
    1   -5.14086552    9.93371209    0.49300911     40.57040966   12.02072910  -35.28874989      7.10153333   64.04877983   -8.89073770
    1   -6.15036925    9.37743059    1.33363720    -10.83862440   48.48442942   -1.25467436   -147.45935979   87.79336052   97.59173577
    8    8.73506065    8.63076614    2.90023958      3.34082377   30.42469193    5.64681173    -21.79474268   10.29310329    9.67607595
    1    7.96801531    8.08835811    2.98058620     -9.69140071  -18.30643202    0.30052721     41.28069023  -86.88650895  -36.93844017
    1    8.38420063    9.49730654    3.17870305      7.46944751   -8.83208654   -1.99725416    133.97867425   62.00110191   15.90371755
    8   -7.58378782    2.22788957   -5.47283195     -6.08996889  -23.59069612   37.91771856     -5.66573300   10.52831480   -3.71407578
    1   -8.08111034    2.91908212   -4.98115549     17.19821185   -4.91215100  -29.72551276    -15.17042087  -70.37577436  166.02334120
    1   -7.31842656    2.56311634   -6.32505641    -10.58656936   24.87407312    1.02517944     17.99849432  -81.30446219  -63.55223572
    8    5.47930369    7.59809086   -6.65524914     68.77675600  -67.60838804    7.46882824    -12.24020619    9.24327204    3.49927630
    1    5.05691911    7.25243531   -7.47158292    -18.77256074   41.91775449   19.44969212     86.92315647  -70.54284961  -69.61814068
    1    5.07180354    8.34336333   -6.27235826    -45.09391513   28.08183356  -21.52667470     38.58813472   50.88668654   82.11116086
    8    0.09887471    3.51072453    4.47343307      6.71933844  -42.67089879   34.54623514      2.65087391    3.16575077  -17.77607639
    1   -0.42922724    3.35401193    3.68517466      3.90701226   23.72791713  -12.14728405   -135.79957740  -52.14696949   70.75148679
    1    0.58139071    4.31956352    4.37211302    -10.33599046   19.64200789  -21.39915525     26.55587081   -5.68597061  124.57772460
    8    5.26999858    2.35365601    6.47387292     14.18819511   61.27423816  -16.23079001     -1.47768705   -9.33084760   -2.94919438
    1    5.31789887    1.83520921    5.64135566    -15.77825344  -29.26897739   37.08828144     20.36612781  106.03836249  -99.14014163
    1    4.92252890    1.88290931    7.23755360     -1.87893287  -37.03974143  -25.56028325    -40.76977858   52.18380936   55.00305654
    8   -6.96375475    5.02054801    1.49079278     -6.46603179   11.00098695   -7.88382185     -7.12218067   -5.66027761   14.27016118
    1   -7.41226825    4.18154686    1.37361657     -0.69024697   -3.47752636    3.06873396    -36.03587919   28.82420544 -121.11263303
    1   -6.65044716    5.00339472    2.39340076      3.75813981   -2.61352909    5.47642836     79.39416922  115.22234540   -9.75196157
    8    0.86752136   -6.88723191    5.31296916     -0.81529210   21.85039099    6.83150491    -13.11424025    4.42271876   -8.34874879
    1    0.33733182   -7.43227590    4.76890503     -6.88406730  -24.81758915  -13.05950644     66.00504256  -80.78655264   15.05967994
    1    0.34654863   -6.07936126    5.32232714     10.42339959    2.64807745    6.07858411    115.14809396   75.89529721   76.46069352
    8    8.55607936    9.63635405   -5.34618798    -41.68233576   52.54892283   -0.04166948      7.36864492  -16.63017885   -2.35152511
    1    8.56329652    8.83795923   -4.77853406     41.38421928   -2.56201924  -39.43302030    -76.62174210   24.05432392   87.26291832
    1    9.27265263    9.77293259   -6.00727151     -1.09535920  -50.92751390   35.84853072    -35.62697653   82.87516227  -46.73744029
    8   -9.16590664   -9.54102685    0.72310443      0.02246030  -35.07726504   45.35549250      4.54085036  -17.21380518    6.58997182
    1   -9.20231523    9.89240364    1.52149066    -29.36134728   18.57527285  -11.30269120   -148.74329886   38.53432730   27.78518296
    1   -8.26807874   -9.76018137    0.53974316     22.83922549   17.28287465  -33.17004205      2.76268691   87.21084585  -66.74220423
    8   -5.66207442   -9.41445174    4.80712176      7.09747197   -3.04503654   -3.93816889      5.32200721    5.97142809  -10.49299059
    1   -5.96396448   -8.91620585    4.05478942     -8.56718205    2.90424091   -4.59722207   -115.38509304  -24.10027942   19.91101384
    1   -4.71874304   -9.24983294    4.80384168      0.82272224   -1.42121987    6.64948590     16.09287145  -56.87683119  122.73704145
    8    6.26250508    5.63936653    0.44166548      2.70519491   18.64371262   15.19821767      0.08933206    9.24969161   -9.24769748
    1    6.54458170    6.55116090    0.62167115      2.42742380  -13.39507050   -0.01565331     54.36877457  -31.97972096  125.56888514
    1    5.95219587    5.68475041   -0.44833399     -2.82527069   -5.03649527  -15.73880942    -51.86935072 -106.15974790   10.41928572
    8   -6.31407956    1.17299052    9.03282015     47.78979225  -46.40605041  -16.28660929     -7.77992638   10.33321876    1.38580999
    1   -6.87213702    1.58080614    8.38425415    -23.04766576   25.44886742   24.92807374     56.16950723  -44.68041838 -110.12601018
    1   -6.55483870    1.38945845    9.92799260    -24.34910095   26.28496154   -4.59590883     89.76502765  -29.66655474   52.61292272
    8   -6.31751248    0.79324625    5.85367205     -5.13510975  -21.08613092  -26.54129516     -3.93085644   10.38382830    8.90744686
    1   -5.49416669    1.23859990    5.65357574      0.36724148    6.15383177    9.32137718     33.25290440  -92.90190560  -97.70899090
    1   -6.71224484    1.25506770    6.57292401      4.64825950   13.88176023   12.86856062   -110.76259305  -72.18489330   -1.11886987
    8    3.12686784   -7.72858083    9.94409269     53.72752199    3.17109891   77.90232782      2.81777947   -5.76610562    4.05611317
    1    3.50133742   -7.11672344    9.26701560    -56.12520666  -36.64721051  -21.46520587     77.06089710   48.88321714   77.41815435
    1    2.31879697   -8.23451252    9.77013537      5.20860076   29.43823086  -57.76763606    -13.38533502  -41.86393527   98.86833965
    8    0.84222028   -6.36206807   -6.32955120     21.96110048  -10.43606857    4.81921370     -3.85725656    4.58421221  -10.85238367
    1    1.17714662   -6.45648566   -7.22774766    -10.06046605    4.75175258    3.92712713    131.30013552  -64.73053534   42.72024708
    1   -0.02852846   -6.00346911   -6.39979689    -12.63722439    5.71013521   -9.24124009    -33.58419419  -25.74784962  114.54982813
    8    6.55572916   -9.21359478    3.36319080    -29.51287974  -11.84555173   10.89354220     -8.98353957    2.77573532    4.17701909
    1    5.67239220   -9.30740116    3.79373363     19.19165784   -2.73900621   -6.43829530     43.78262704 -126.60722169   77.77024762
    1    6.58960667   -8.28022246    3.20404464      8.04376949   13.02986389   -5.66820588    127.25305412  -12.31286521  -38.29054418
    8    1.54084982    7.23892381   -7.51582285      8.79791322    8.45425827   18.51417291     -7.83704136  -10.56666986   -7.06438243
    1    1.08681232    7.03581966   -8.32214851     -6.99720824   -4.93998330  -14.92817714    110.22227843   39.48749472  -90.72288233
    1    0.84304419    7.29146472   -6.85422336      3.19364181   -0.34135965   -4.66752073     84.94492110   55.88245698   99.37608762
    8   -0.18402781    7.73448803    3.45041390     26.46284733   33.37532804  -18.64212870      5.59613134    4.78202868    0.62660164
    1    0.31038216    8.22751377    4.09189304     -8.82691920  -11.95208913   36.20752058    -88.66842685  -60.13573042   91.41930572
    1    0.20105568    8.17518763    2.68919573    -19.32216611  -20.38732408  -20.37467079    -72.93882798  -94.94104787  -80.78691832
    8    9.17941847    3.19045574    0.16700852     39.14073560  -72.37266918  111.47396810     -2.66183200    4.47011225   -7.74818205