 BEGIN_INFO
   #
   # This is a XCRYSDEN-Structure-File
   # aimed for Visualization of Fermi Surface
   #
   # Case: Tight-binding calculation
   #
   # Launch as: xcrysden --xsf HICOLM.XSF
   #
 END_INFO
 # estrutura final
CRYSTAL
PRIMVEC
      15.00000000       0.00000000       0.00000000
       0.00000000      15.00000000       0.00000000
       0.00000000       0.00000000      15.00000000
PRIMCOORD
  306    1
    6    0.00631988   -0.00000002    0.09999991     -0.46509289   -0.14515209   -0.76951643      0.00000000    0.00000000    0.00000000
    6    1.33999988   -0.00000002    0.09999991     -2.18420855    0.30684339   -0.51827048      0.00000000    0.00000000    0.00000000
    1   -0.53868012   -0.94397002   -0.10000009      0.21940029    0.65210250    0.50555006      0.00000000    0.00000000    0.00000000
    1   -0.53868012    0.94396998    0.04708219     -0.30951685   -0.30394275    0.75209729      0.00000000    0.00000000    0.00000000
    1    1.88499988    0.94396998   -0.10000009      0.80398161   -0.96924226    0.52465776      0.00000000    0.00000000    0.00000000
    1    1.88499988   -0.94397002    0.15291764      1.61812738   -0.49001345    0.67397768      0.00000000    0.00000000    0.00000000
    8   -3.01327925   -0.92149580    3.16179276      8.50359879    3.25005699    7.97871457      0.00000000    0.00000000    0.00000000
    1   -3.45392125   -0.21475780    3.71525676     -0.02458504    5.51847857   -3.66519213      0.00000000    0.00000000    0.00000000
    1   -2.10661325   -1.06266280    2.76430476     -5.16395041    2.00979318   -1.27058588      0.00000000    0.00000000    0.00000000
    8    6.53157278    6.36827116    0.95286326     17.87693370  -10.07202161   -7.43589934      0.00000000    0.00000000    0.00000000
    1    5.71813578    5.95136616    0.54730426     -7.52028106   -6.65303845    0.88123297      0.00000000    0.00000000    0.00000000
    1    7.39409178    6.03786916    1.33608926      2.74020651   -8.23365792    0.12462745      0.00000000    0.00000000    0.00000000
    8    0.33805423    4.96878212    5.42052142     -7.62967983    2.76985646   -5.18424518      0.00000000    0.00000000    0.00000000
    1    0.94522423    4.95208312    6.21489642     -1.52035152   -8.12791413   -1.01457843      0.00000000    0.00000000    0.00000000
    1   -0.16487377    5.66925012    4.91418842     -2.01045909   -2.25112978    5.65291232      0.00000000    0.00000000    0.00000000
    8   -4.21327484    3.82233047   -2.77481950     20.62613255   -5.96577240  -13.77946602      0.00000000    0.00000000    0.00000000
    1   -3.90381484    4.06329247   -1.85496150     -9.63621544    0.01116376    3.86296043      0.00000000    0.00000000    0.00000000
    1   -4.95036284    3.26993847   -3.16409050     -3.04013799    1.99788430    5.75424699      0.00000000    0.00000000    0.00000000
    8   -0.70056664    2.57498365    4.09798534      3.66557659  -11.87578862   -5.92059532      0.00000000    0.00000000    0.00000000
    1   -0.95673664    2.57598265    5.06459934      1.42885000    4.62266273   -0.37494454      0.00000000    0.00000000    0.00000000
    1   -0.44123064    3.26461465    3.42187934      2.69474881    1.94960522    4.55077048      0.00000000    0.00000000    0.00000000
    8    0.84977207    5.18484116   -6.26212678     22.06513704    2.09858134    2.42449450      0.00000000    0.00000000    0.00000000
    1    1.26385907    4.80810216   -5.43353378     -4.87343617   -3.75899568    0.00529350      0.00000000    0.00000000    0.00000000
    1    1.15771207    5.75116716   -7.02659678     -4.57524485   -9.30393442    5.37356025      0.00000000    0.00000000    0.00000000
    8    7.43381498   -0.89166580   -1.12360509     -8.89478266    1.98654267    0.05495252      0.00000000    0.00000000    0.00000000
    1   -7.06460002   -0.02719180   -1.15621709      5.61508277   -0.73641191   -2.71007054      0.00000000    0.00000000    0.00000000
    1   -7.47151302   -1.76029180   -0.63730009      3.95827422   -2.95622525    3.04336673      0.00000000    0.00000000    0.00000000
    8    0.28572556   -6.29043694   -3.57627550   -113.26255146  171.00776880   15.49400263      0.00000000    0.00000000    0.00000000
    1    0.65893156   -5.46185594   -3.15897550      2.45237864   -3.46156444    5.42127726      0.00000000    0.00000000    0.00000000
    1    0.63209056   -7.20106094   -3.80157850     15.98550458   -5.14642811   12.88762135      0.00000000    0.00000000    0.00000000
    8    1.08793510   -7.46877325    1.86563443   3053.5911355131569.11468141 4761.64704434      0.00000000    0.00000000    0.00000000
    1    0.08860510   -7.48832925    1.89601743      7.37054591    0.08017167  -20.33085944      0.00000000    0.00000000    0.00000000
    1    1.82889910    7.48894775    2.53582243     -4.29089628    0.03919999  -10.74424963      0.00000000    0.00000000    0.00000000
    8   -3.36111191    5.13811796    5.88939306     10.69228686  -22.08430388    0.64717032      0.00000000    0.00000000    0.00000000
    1   -2.49062391    4.65801196    5.99763606     -0.60610526    3.04196827    0.87302496      0.00000000    0.00000000    0.00000000
    1   -4.32245091    4.87500096    5.80838606     -0.87857568   10.46215469   -0.89254309      0.00000000    0.00000000    0.00000000
    8    3.27607168   -4.57953355    4.74400903     -3.92242161   -5.21927456   -1.17560667      0.00000000    0.00000000    0.00000000
    1    3.74611968   -3.87081655    4.21794703     -1.52126982   -0.60355555   -0.69090600      0.00000000    0.00000000    0.00000000
    1    2.47791068   -5.16630655    4.60761603      6.66550462    6.38423355    0.78851497      0.00000000    0.00000000    0.00000000
    8    4.10640087    3.26807625    6.87732593  82447.97852731****************************      0.00000000    0.00000000    0.00000000
    1    3.52297187    4.01723325    6.56373193     -5.22599672   -5.54293587   19.43053635      0.00000000    0.00000000    0.00000000
    1    4.87689087    3.17176225   -7.49256707    -37.00931120   -2.28585369   13.15518494      0.00000000    0.00000000    0.00000000
    8    6.76988280   -4.92841543    4.19534376  **************-4343.09758860-4430.38455737      0.00000000    0.00000000    0.00000000
    1   -7.49105820   -5.58743143    4.05585776     24.94848634   14.51265167    3.25481547      0.00000000    0.00000000    0.00000000
    1    6.70597380   -3.95717543    4.42463476     18.40459738    0.68971504  -11.88024987      0.00000000    0.00000000    0.00000000
    8   -0.59252125   -6.52856248   -6.16946650    195.93576833  304.88003833 -164.88959341      0.00000000    0.00000000    0.00000000
    1   -1.13461225   -5.69027748   -6.11132250     -6.34470506    3.06152475   -5.50167948      0.00000000    0.00000000    0.00000000
    1   -0.78630525    7.49336852   -6.24559950    -39.98115201  -12.44720453  -55.24617174      0.00000000    0.00000000    0.00000000
    8   -6.00270968    3.06492322   -0.19323178     12.23112673    0.87046562  -17.56476384      0.00000000    0.00000000    0.00000000
    1   -5.64183168    2.27870322   -0.69482078     -1.86591818    1.30261814    2.02193191      0.00000000    0.00000000    0.00000000
    1   -6.79258668    3.24281322    0.39363922     -1.12021828  -10.62838829    2.28306813      0.00000000    0.00000000    0.00000000
    8   -6.93949354   -1.91878200    2.69555685  39908.16944108**************-5172.43149078      0.00000000    0.00000000    0.00000000
    1    7.49770846   -1.09221300    2.69256685   -405.06952498  292.20242908  200.81131589      0.00000000    0.00000000    0.00000000
    1   -5.96061754   -2.12253700    2.67962485     10.18266323   -3.82733982   -2.47307062      0.00000000    0.00000000    0.00000000
    8   -5.18902551    7.32170606    0.33272615     13.87540068  -38.61807101  -19.48401745      0.00000000    0.00000000    0.00000000
    1   -4.75644551   -7.49882194   -0.55080685     -3.46204807   -7.52445831   -0.43615450      0.00000000    0.00000000    0.00000000
    1   -6.08219651    7.49970306    0.74567815      4.91949236    1.05423013   -3.84288291      0.00000000    0.00000000    0.00000000
    8   -0.67627651   -5.97472754    4.40363176      6.72253511   -4.31537790   -2.23901907      0.00000000    0.00000000    0.00000000
    1   -0.86236351   -4.99326854    4.35807176     -1.94095639    2.14335206    0.01340311      0.00000000    0.00000000    0.00000000
    1    0.13865749   -6.54972354    4.47594376     -1.35289828    2.37704334    0.08763816      0.00000000    0.00000000    0.00000000
    8   -4.18403038   -7.42235591    6.96540762  ******************************************      0.00000000    0.00000000    0.00000000
    1   -5.02403438    7.49374309   -7.49856938     54.57953535   43.90693798  -63.81370629      0.00000000    0.00000000    0.00000000
    1   -3.27524838   -7.03061391    7.10900062      1.30768038  -35.96672109   95.87160586      0.00000000    0.00000000    0.00000000
    8   -4.87305262   -4.50818223   -5.06133752     12.90324665  -12.06115566   26.29611067      0.00000000    0.00000000    0.00000000
    1   -4.96416762   -3.53749523   -4.83900652     -5.33030401    1.01066215   -1.24172113      0.00000000    0.00000000    0.00000000
    1   -5.19633062   -5.36936123   -4.66912752      0.81995957    3.72560760    0.69259756      0.00000000    0.00000000    0.00000000
    8    5.33454239    2.02261198    4.72953012     24.01612682  -12.14235161   -9.01875767      0.00000000    0.00000000    0.00000000
    1    4.38633039    1.71479398    4.65136612     -8.26994736    6.33878091    0.59779092      0.00000000    0.00000000    0.00000000
    1    6.22131239    1.58785698    4.88635712     -7.69847355    5.19045952   -0.55861468      0.00000000    0.00000000    0.00000000
    8    6.93518031    6.29936658   -6.75859068  -2095.29195818-2284.47100417 1084.92844237      0.00000000    0.00000000    0.00000000
    1    6.08508431    6.52636158   -6.28342968      5.46028162    4.66318308   -1.43489620      0.00000000    0.00000000    0.00000000
    1   -7.49964569    5.48207858   -6.87077668    -12.26983014    9.24124900  -13.88303205      0.00000000    0.00000000    0.00000000
    8   -5.87459095   -4.50104897    7.47960190  -2111.01163025-1415.94578175   18.17664265      0.00000000    0.00000000    0.00000000
    1   -4.90652995   -4.74907097    7.44341390     22.82215335   24.44840504    1.28716862      0.00000000    0.00000000    0.00000000
    1   -6.39791095   -3.65011297   -7.47556110    -25.84119204   -3.72201023    4.77174387      0.00000000    0.00000000    0.00000000
    8    2.10399595    7.37568504   -0.73068640    338.54337292 -191.03726059   -4.01431383      0.00000000    0.00000000    0.00000000
    1    1.11326695   -7.49737296   -0.68265540     88.69251455   -2.23351099  151.28309510      0.00000000    0.00000000    0.00000000
    1    2.72786095    6.59546204   -0.77554140     -3.27549528    2.36734507   -2.18829443      0.00000000    0.00000000    0.00000000
    8    0.34619157   -1.23964631    7.49872469   4605.85619241 1979.52113846-1945.06880923      0.00000000    0.00000000    0.00000000
    1   -0.41425043   -1.88900831   -7.49646831    -50.98205738   -2.79366968   63.93863191      0.00000000    0.00000000    0.00000000
    1    0.44207757   -0.24427131    7.49772369     -8.54710794  -29.81522088  -12.32262939      0.00000000    0.00000000    0.00000000
    8   -6.95639975   -7.38943660   -7.31779421    822.54407226 3831.22275433-1229.85592366      0.00000000    0.00000000    0.00000000
    1    7.44819925   -6.58888160   -7.25013521     -4.20542013   -0.94726412   -1.25142667      0.00000000    0.00000000    0.00000000
    1   -5.98891575    7.44801040    7.48851179    -58.02168589   -4.64711915  -14.59724588      0.00000000    0.00000000    0.00000000
    8    3.95826640   -0.51302710    2.27243048      3.38719887    0.32700635    5.69345805      0.00000000    0.00000000    0.00000000
    1    4.63471240    0.21712690    2.36867148     -1.27697523   -1.96974324   -1.72517787      0.00000000    0.00000000    0.00000000
    1    3.01688040   -0.66563810    2.57321148     -2.20793978   -0.26372531   -2.73596976      0.00000000    0.00000000    0.00000000
    8   -5.22071884   -5.44748169    1.33510858      0.93223939   52.02160210   14.72949139      0.00000000    0.00000000    0.00000000
    1   -4.55902484   -5.63528069    0.60925758     -3.39021792   -5.69705450    3.94789642      0.00000000    0.00000000    0.00000000
    1   -6.14519384   -5.75346369    1.56245958      1.45918251    7.78011709    4.69948095      0.00000000    0.00000000    0.00000000
    8   -3.39401800   -3.63904398    2.99576469     10.17571384  -11.36258671    6.27540753      0.00000000    0.00000000    0.00000000
    1   -3.24721800   -3.65525398    2.00674869     -7.49317414    1.71821723    1.56525126      0.00000000    0.00000000    0.00000000
    1   -3.45247100   -4.32022498    3.72551969     -6.61683103   -4.40971356   -3.33467504      0.00000000    0.00000000    0.00000000
    8   -5.65832287   -0.40747224   -7.15307441      1.53464098  -10.77240587   15.46406017      0.00000000    0.00000000    0.00000000
    1   -4.68641587   -0.22340024   -7.29964041     -7.01442756    7.86034505   -2.13288726      0.00000000    0.00000000    0.00000000
    1   -6.50652387    0.11925276   -7.20859441      3.01571158    8.97693046   -0.12422622      0.00000000    0.00000000    0.00000000
    8    2.29647611    2.18269819    2.93715921      9.40902657   -7.88186337    2.07840263      0.00000000    0.00000000    0.00000000
    1    1.84581111    1.59405619    3.60825421     -6.64530542    4.81040250   -2.63777252      0.00000000    0.00000000    0.00000000
    1    2.00108911    2.83507219    2.23921921     -1.21852893    2.12987368    1.48618637      0.00000000    0.00000000    0.00000000
    8    2.67592643   -6.82364351    7.23242125  **************15221.46816658-3229.10841918      0.00000000    0.00000000    0.00000000
    1    3.32628643    7.46547949   -7.49990075    289.93623479 -169.35254757   15.16429728      0.00000000    0.00000000    0.00000000
    1    1.74140743   -6.57202651    7.48407825      9.01076782   13.45060081    8.33078928      0.00000000    0.00000000    0.00000000
    8    2.86245411    5.54187575    4.33487213      2.20865196    8.70488584    1.10055856      0.00000000    0.00000000    0.00000000
    1    3.77339411    5.19324975    4.11438513      0.11428187   -3.28889489   -3.06748961      0.00000000    0.00000000    0.00000000
    1    2.44977411    6.44307475    4.46717113      4.63060854   -4.18363042    0.60367648      0.00000000    0.00000000    0.00000000
    8   -3.62479858    2.61057263    4.13449217     -6.78248229   -2.40548685    1.99323141      0.00000000    0.00000000    0.00000000
    1   -4.36806358    2.34018563    4.74638617      0.12012480   -1.21803636   -1.15888307      0.00000000    0.00000000    0.00000000
    1   -3.34378158    3.45140763    3.67189917      1.76533151    2.94248057    2.01202400      0.00000000    0.00000000    0.00000000
    8   -6.89448735   -7.36677525    4.58373020    -68.06191246  317.02313831 -353.79509522      0.00000000    0.00000000    0.00000000
    1   -6.95573735    7.49287275    5.57191920     38.64371352    5.63209941   18.44564097      0.00000000    0.00000000    0.00000000
    1   -7.49785135    7.49353475    3.79861620      7.50076803    6.52889484    4.72188986      0.00000000    0.00000000    0.00000000
    8   -2.75573348    2.04953289   -6.26027003    -13.90722993  -12.33257136  -10.59531573      0.00000000    0.00000000    0.00000000
    1   -2.08807448    2.31607989   -6.95536103      4.76225627    4.53229410    5.06480028      0.00000000    0.00000000    0.00000000
    1   -2.95552948    1.22277289   -5.73442303      3.27279217    3.10614778    2.66554870      0.00000000    0.00000000    0.00000000
    8    7.13343581   -0.82599083    2.81485199  **************46812.24809140 5016.33452050      0.00000000    0.00000000    0.00000000
    1    7.48868081   -1.22277783    1.96849099     32.35420781  -65.41455600  -58.63382347      0.00000000    0.00000000    0.00000000
    1   -7.47528119   -0.49202583    3.67236699     15.37307126   -4.61308022   13.59738810      0.00000000    0.00000000    0.00000000
    8    2.55300305   -3.49510480   -4.48886319     11.56725333    2.69880246    9.19179279      0.00000000    0.00000000    0.00000000
    1    2.61909405   -2.49855080   -4.53865519     -2.74391276   -1.66336120   -1.76072705      0.00000000    0.00000000    0.00000000
    1    2.98083305   -4.21814680   -3.94651819     -4.62623917   -0.51038169   -1.13605927      0.00000000    0.00000000    0.00000000
    8    4.08256223    0.52116421   -7.44786007   -187.75317644  181.10621472 -841.49336361      0.00000000    0.00000000    0.00000000
    1    4.93836723    0.46949421    7.03745893      0.34241831    6.72235120    3.90274961      0.00000000    0.00000000    0.00000000
    1    3.16325823    0.13873221    7.45944993    -10.54229973    5.56122547   -0.26429081      0.00000000    0.00000000    0.00000000
    8   -4.46075686    0.93907214    1.43354032      0.16080081    2.57367269   -6.51998599      0.00000000    0.00000000    0.00000000
    1   -5.37185086    0.52823614    1.46656032      0.37336013    0.16768610   -0.36423722      0.00000000    0.00000000    0.00000000
    1   -4.08302686    1.85992314    1.53007332     -2.66958014    0.62836236    1.91246456      0.00000000    0.00000000    0.00000000
    8    7.42253021    1.82983817    1.51011127     -9.09873829    0.90993590   13.50951336      0.00000000    0.00000000    0.00000000
    1    6.80534421    1.30979217    0.91968727     -1.38108777   -3.49126654   -2.77995157      0.00000000    0.00000000    0.00000000
    1   -7.48501879    1.98693317    2.49334027     -0.37194398   -1.62140853   -1.72629551      0.00000000    0.00000000    0.00000000
    8    2.55477115   -1.44642618    5.16679066      1.91878098    9.78187956   -3.32550628      0.00000000    0.00000000    0.00000000
    1    3.54469615   -1.30708518    5.19127566     -1.45949203   -4.62866954   -0.35038572      0.00000000    0.00000000    0.00000000
    1    1.74555415   -0.85895218    5.16377166     -1.16530281   -3.76304818    2.48713644      0.00000000    0.00000000    0.00000000
    8    0.94395681    6.04212269    1.64311940  -3064.65224909**************-4700.23397282      0.00000000    0.00000000    0.00000000
    1    1.93249381    6.00039169    1.78810040     -7.32433345    8.40048516   -6.36765033      0.00000000    0.00000000    0.00000000
    1    0.13550081    6.14214169    2.22308640     13.72165375   -1.72550572   -6.65986171      0.00000000    0.00000000    0.00000000
    8   -4.99204198   -0.31462738   -2.92822471     11.30751314    5.04790167    2.89092239      0.00000000    0.00000000    0.00000000
    1   -4.07376698    0.08083162   -2.90952071     -2.51870836   -0.16690788    0.85485001      0.00000000    0.00000000    0.00000000
    1   -5.37764398   -1.23697738   -2.95164771     -4.57272614   -2.58580607    1.13591499      0.00000000    0.00000000    0.00000000
    8   -3.55190089   -7.14357083   -3.36555510     -8.78646647    0.01506618   -1.19636041      0.00000000    0.00000000    0.00000000
    1   -2.62520889   -7.43889783   -3.59791610      6.64973060   11.61824014   18.72034751      0.00000000    0.00000000    0.00000000
    1   -4.43745989    7.41061717   -3.23515810     -1.91592348   -6.24118247    0.53280192      0.00000000    0.00000000    0.00000000
    8    5.31143464   -3.35165140    0.98910578     -2.45054483    6.28286853  -11.02794895      0.00000000    0.00000000    0.00000000
    1    6.24862364   -3.49161840    0.66964978     -0.80774565   -4.87385572    6.64221409      0.00000000    0.00000000    0.00000000
    1    4.87745664   -3.07653040    1.84697478      1.62794659    2.11066483    0.42607851      0.00000000    0.00000000    0.00000000
    8   -7.47453139    6.56222522   -2.01182314  -6299.65367029 7215.20820482 -100.49198957      0.00000000    0.00000000    0.00000000
    1    7.37931661   -7.47703278   -1.77606814    -22.04634293   88.22786561  -63.81116746      0.00000000    0.00000000    0.00000000
    1   -7.50014039    5.68986922   -1.52365614    -26.91264552  -24.49445270  -56.58634312      0.00000000    0.00000000    0.00000000
    8   -4.81301971   -2.04654689    0.18788776     -6.17103799    0.21028733    6.48020551      0.00000000    0.00000000    0.00000000
    1   -4.09047771   -1.50305089   -0.23932424     -0.06568048    0.48046839   -0.15321530      0.00000000    0.00000000    0.00000000
    1   -5.13459071   -2.99136889    0.12567776      0.88136313   -1.92852696   -1.04190980      0.00000000    0.00000000    0.00000000
    8    7.38242350   -0.34146104   -4.53039879  -7365.82517584****************************      0.00000000    0.00000000    0.00000000
    1    6.81199950   -0.03684604   -3.76764479     -9.22597936   31.69091002    5.71983744      0.00000000    0.00000000    0.00000000
    1   -7.53289450   -0.11468204   -5.50063979    -14.50402692   -9.94755202  -45.47802173      0.00000000    0.00000000    0.00000000
    8   -6.78325135   -4.43664531    4.70097916  12788.05309085 4357.06505312 4461.29270985      0.00000000    0.00000000    0.00000000
    1    7.48314065   -4.78382531    5.28514716    -17.86180156  -11.41056239  -16.83750394      0.00000000    0.00000000    0.00000000
    1   -5.99905835   -3.82705531    4.81678216      2.03734940   -5.24801761   -0.06758598      0.00000000    0.00000000    0.00000000
    8   -4.36345772   -3.45958314    7.45081784  -9242.67037921**************16084.81507661      0.00000000    0.00000000    0.00000000
    1   -3.65157372   -2.75736514    7.44197084    -14.78160746    6.20951864  -90.29118663      0.00000000    0.00000000    0.00000000
    1   -5.36336672   -3.47028114    7.44496284      7.57415542  -34.05030031   -1.97206933      0.00000000    0.00000000    0.00000000
    8    6.54318638    2.52850469   -6.52698505   -276.59294645    8.41445792  -91.25680180      0.00000000    0.00000000    0.00000000
    1    6.38833338    3.20410769   -5.80618805      4.94179200  -10.82390829    6.18982710      0.00000000    0.00000000    0.00000000
    1    6.52914238    2.52740869    7.47313095      1.06213043   -0.98582084    4.08694513      0.00000000    0.00000000    0.00000000
    8    1.83314825    0.84406066   -4.74776741     -9.15022200   -2.98997238    6.13376662      0.00000000    0.00000000    0.00000000
    1    1.28770225    0.01010866   -4.66423441      0.43787710   -0.25696096    0.09665732      0.00000000    0.00000000    0.00000000
    1    1.65341725    1.82725766   -4.71632441      1.29958398   -0.15920324   -3.98675066      0.00000000    0.00000000    0.00000000
    8    5.03699747   -5.42191034    7.15582527     34.24117444    7.26325990   11.34620963      0.00000000    0.00000000    0.00000000
    1    5.13728947   -5.87540834    6.27024727     -7.96905750    7.00247409   -3.92273432      0.00000000    0.00000000    0.00000000
    1    4.67563047   -4.54740934    7.47928827     -9.20834750    0.27792880   -6.67488918      0.00000000    0.00000000    0.00000000
    8   -1.78647620   -0.13017285    5.89643567     -1.59780645   -7.13649912   16.12005336      0.00000000    0.00000000    0.00000000
    1   -1.11121420   -0.15083985    5.15916867     -0.96564943    4.66675909   -7.41087666      0.00000000    0.00000000    0.00000000
    1   -2.22893720    0.57773615    6.44694367     -0.44114054    6.89415483   -6.22352315      0.00000000    0.00000000    0.00000000
    8   -7.35007268   -3.94959848   -2.92282204      2.43867492   -4.51212219    8.11862061      0.00000000    0.00000000    0.00000000
    1    7.49885532   -2.97769748   -3.10324404     -2.11265228    8.03933533   -8.02103954      0.00000000    0.00000000    0.00000000
    1    7.46447732   -4.80745948   -3.40204004      0.49323766    1.37255740   -0.52202916      0.00000000    0.00000000    0.00000000
    8   -2.09926846   -5.22485507   -1.01379690    -15.34375964   -1.13289491   12.44233500      0.00000000    0.00000000    0.00000000
    1   -2.08282446   -4.49156707   -0.33410190      1.65711076    0.34700698   -4.71882182      0.00000000    0.00000000    0.00000000
    1   -2.44222146   -6.16344707   -1.05113890      8.95324280    7.55353195   -7.70730363      0.00000000    0.00000000    0.00000000
    8    5.64670519   -2.64496294   -6.08377833  -1176.15063309  308.96217993 -113.28488167      0.00000000    0.00000000    0.00000000
    1    5.29555319   -3.40287094   -5.53402033      2.80983187   -0.99515023    3.28555016      0.00000000    0.00000000    0.00000000
    1    6.45552619   -2.48009694   -6.64821933      3.50831858  -34.06113399   21.77091916      0.00000000    0.00000000    0.00000000
    8   -6.45198578    5.27506248   -2.03335504   6686.95679283-8445.40490980 -119.50137045      0.00000000    0.00000000    0.00000000
    1   -6.77962578    5.65709548   -1.16925504     59.30306638   13.57825735   10.26838444      0.00000000    0.00000000    0.00000000
    1   -6.58783778    5.47193548   -3.00430904     -7.73259094   16.14797211    8.67572197      0.00000000    0.00000000    0.00000000
    8    1.25514852    2.46912069    7.11068516  ******************************************      0.00000000    0.00000000    0.00000000
    1    0.32157952    2.58100069    7.45112216   -110.22290946  -80.73045408  -93.53304656      0.00000000    0.00000000    0.00000000
    1    1.67789852    2.16156969    6.25824016     -4.67218550    1.50177739    5.14876953      0.00000000    0.00000000    0.00000000
    8    3.48272019    3.36600108   -6.95472646  **************12993.51366045**************      0.00000000    0.00000000    0.00000000
    1    3.70791419    3.76160408   -6.06436046     -2.61283389   -9.87395910   -5.30215113      0.00000000    0.00000000    0.00000000
    1    3.77416519    2.56756108    7.51847254     38.43778956   54.50276863  -55.31379894      0.00000000    0.00000000    0.00000000
    8    6.92334529    3.10414301   -2.72409891     -7.88008206    0.82877042    9.79004682      0.00000000    0.00000000    0.00000000
    1    6.00321629    2.71585201   -2.77468491     -0.18212398   -1.48628111   -3.48274187      0.00000000    0.00000000    0.00000000
    1   -7.48111371    3.62499101   -3.33566691     -0.18710132   14.55540114    6.62096287      0.00000000    0.00000000    0.00000000
    8   -1.14079175   -1.87642343   -6.87511015  -4548.96060144-1976.81817782 1869.23491635      0.00000000    0.00000000    0.00000000
    1   -1.27352775   -1.09695443   -7.48730015     -7.09615003   13.68394452  -12.11914456      0.00000000    0.00000000    0.00000000
    1   -0.96576175   -2.85492843   -6.98401115     -2.27974743  -16.43657128   15.09070255      0.00000000    0.00000000    0.00000000
    8    6.04890250   -6.19435232    1.68470039      4.96649098   15.16443580   -6.06167430      0.00000000    0.00000000    0.00000000
    1    5.18899250   -6.53632032    2.06362039     -0.03179851    2.76984566    6.25708743      0.00000000    0.00000000    0.00000000
    1    6.89131250   -6.60099932    1.33121639    -10.86623357   -1.27821376   -3.22768399      0.00000000    0.00000000    0.00000000
    8    6.54136274   -6.73897152   -1.78784496  **************-2592.65664404**************      0.00000000    0.00000000    0.00000000
    1    6.14458374   -5.85812952   -2.04601296      7.55761242    5.61043183    6.84944046      0.00000000    0.00000000    0.00000000
    1    6.27839574    7.49967548   -1.19525996    -31.85009029   -7.04249567   -3.04033340      0.00000000    0.00000000    0.00000000
    8   -4.74508345    4.86060959    1.47544255      6.23903116   -4.41927140   16.89261140      0.00000000    0.00000000    0.00000000
    1   -3.75260145    4.88866259    1.35645055     -4.41028197    2.06379796   -0.46553477      0.00000000    0.00000000    0.00000000
    1   -5.37410945    4.70795259    2.23766855      4.34685763    0.65611863    0.12067083      0.00000000    0.00000000    0.00000000
    8   -6.77064107    6.19915631    6.09027123    348.78064841 -322.81602266  -78.50697556      0.00000000    0.00000000    0.00000000
    1    7.49986193    6.68501631    5.60887723    -16.09321158  -23.15984159   -3.46631941      0.00000000    0.00000000    0.00000000
    1   -6.41117907    6.18287331    7.02327123      0.67295097   12.91134413   31.47282555      0.00000000    0.00000000    0.00000000
    8   -1.06850349    3.51041676   -4.51768820     13.94805604   -2.31984960    9.19739116      0.00000000    0.00000000    0.00000000
    1   -0.85286949    2.89828976   -3.75691920     -4.08142672    2.50327907   -0.89266715      0.00000000    0.00000000    0.00000000
    1   -1.81058549    4.14075076   -4.74563620     -2.20629027    0.00569942   -1.45036009      0.00000000    0.00000000    0.00000000
    8   -6.05925252   -0.08262947    5.18135415    -16.40263179   14.11000479  -18.47460102      0.00000000    0.00000000    0.00000000
    1   -5.68078952   -1.00822747    5.18037015      6.20157552   -7.12166312    2.67965256      0.00000000    0.00000000    0.00000000
    1   -6.97447852    0.32024853    5.17710615      9.31340095   -1.68058848    7.31720276      0.00000000    0.00000000    0.00000000
    8    7.53314035    1.04185974   -4.23829531   7583.7649933569800.8750343514785.03182482      0.00000000    0.00000000    0.00000000
    1   -7.33376165    0.08347974   -4.49079931   -200.14925667 -344.62273810  -12.27679839      0.00000000    0.00000000    0.00000000
    1   -7.15245665    1.64232874   -3.50307031     -1.76239795    1.15058203    1.01636722      0.00000000    0.00000000    0.00000000
    8    1.70659240   -4.10380698   -7.17761930    -17.45174690   -9.04701954  -13.54292375      0.00000000    0.00000000    0.00000000