 BEGIN_INFO
   #
   # This is a XCRYSDEN-Structure-File
   # aimed for Visualization of Fermi Surface
   #
   # Case: Tight-binding calculation
   #
   # Launch as: xcrysden --xsf HICOLM.XSF
   #
 END_INFO
 # estrutura final
CRYSTAL
PRIMVEC
      15.00000000       0.00000000       0.00000000
       0.00000000      15.00000000       0.00000000
       0.00000000       0.00000000      15.00000000
PRIMCOORD
  306    1
    6   -7.49368239    7.49999926   -7.40000095     -0.47850532   -0.15863265   -0.76020465      0.00000000    0.00000000    0.00000000
    6   -6.16000239    7.49999926   -7.40000095     -2.21007557    0.30575981   -0.53273015      0.00000000    0.00000000    0.00000000
    1    6.96131761    6.55602926    7.39999905      0.22998771    0.65170021    0.49622373      0.00000000    0.00000000    0.00000000
    1    6.96131761   -6.55603074   -7.45291867     -0.30615090   -0.29278420    0.75629783      0.00000000    0.00000000    0.00000000
    1   -5.61500239   -6.55603074    7.39999905      0.81298677   -0.99101873    0.53463947      0.00000000    0.00000000    0.00000000
    1   -5.61500239    6.55602926   -7.34708323      1.60764081   -0.48319258    0.67824518      0.00000000    0.00000000    0.00000000
    8    4.48673052    6.57851538   -4.33819717      8.56531789    3.10970035    7.98217714      0.00000000    0.00000000    0.00000000
    1    4.04608852    7.28525338   -3.78473317     -0.09242575    5.55858468   -3.62813826      0.00000000    0.00000000    0.00000000
    1    5.39339652    6.43734838   -4.73568517     -5.15776247    2.05654468   -1.27716059      0.00000000    0.00000000    0.00000000
    8   -0.96840092   -1.13177008   -6.54715042     19.09500994   -9.99264105   -6.15419447      0.00000000    0.00000000    0.00000000
    1   -1.78183792   -1.54867508   -6.95270942     -7.68476317   -6.77545139    0.06152574      0.00000000    0.00000000    0.00000000
    1   -0.10588192   -1.46217208   -6.16392442      2.15807947   -8.39165186    0.13041791      0.00000000    0.00000000    0.00000000
    8   -7.16196032   -2.53121995   -2.07948642     -8.28604859    3.00161358   -5.67761557      0.00000000    0.00000000    0.00000000
    1   -6.55479032   -2.54791895   -1.28511142     -0.86506371   -8.29333304   -0.62824662      0.00000000    0.00000000    0.00000000
    1    7.33511168   -1.83075195   -2.58581942     -1.89932430   -2.25433982    5.56744548      0.00000000    0.00000000    0.00000000
    8    3.28684717   -3.67770771    4.72517525     51.99905068  -15.43851053   -6.07133233      0.00000000    0.00000000    0.00000000
    1    3.59630717   -3.43674571    5.64503325     -7.11274709    0.32268483    4.13096285      0.00000000    0.00000000    0.00000000
    1    2.54975917   -4.23009971    4.33590425     -3.11541501    0.57843709    5.93090489      0.00000000    0.00000000    0.00000000
    8    6.79944045   -4.92503629   -3.40202482      3.94412966  -11.62390570   -5.69226379      0.00000000    0.00000000    0.00000000
    1    6.54327045   -4.92403729   -2.43541082      1.02605759    4.37437117   -0.56972349      0.00000000    0.00000000    0.00000000
    1    7.05877645   -4.23540529   -4.07813082      2.61261252    1.89818630    4.45321658      0.00000000    0.00000000    0.00000000
    8   -6.65019235   -2.31517015    1.23788827     20.77005220    2.65734380    3.03850995      0.00000000    0.00000000    0.00000000
    1   -6.23610535   -2.69190915    2.06648127     -4.40908199   -3.84644877   -0.37483053      0.00000000    0.00000000    0.00000000
    1   -6.34225235   -1.74884415    0.47341827     -4.04789419   -9.42908586    5.27607947      0.00000000    0.00000000    0.00000000
    8   -0.06619878    6.60833630    6.37639314     -8.86985855    2.10313131    0.10506384      0.00000000    0.00000000    0.00000000
    1    0.43538622    7.47281030    6.34378114      5.42510338   -0.79605832   -2.83687938      0.00000000    0.00000000    0.00000000
    1    0.02847322    5.73971030    6.86269814      4.08233136   -1.15496268    0.43986986      0.00000000    0.00000000    0.00000000
    8   -7.21456867    1.21000320    3.92377827   -127.97035925  190.53230949   16.52852035      0.00000000    0.00000000    0.00000000
    1   -6.84136267    2.03858420    4.34107827      2.40207111   -3.51422738    5.37985373      0.00000000    0.00000000    0.00000000
    1   -6.86820367    0.29937920    3.69847527     17.54224510   -6.63789430   13.45564908      0.00000000    0.00000000    0.00000000
    8   -6.40723752    0.08113795   -5.62684612   1310.4436387813545.05673256 2066.59788493      0.00000000    0.00000000    0.00000000
    1   -7.40656752    0.06158195   -5.59646312      5.65041538   -0.92970318  -18.37760546      0.00000000    0.00000000    0.00000000
    1   -5.66627352    0.03885895   -4.95665812     -3.23096583   -0.32638641  -10.54719731      0.00000000    0.00000000    0.00000000
    8    4.13890357   -2.36191591   -1.61060676     11.26623355  -22.89566348    0.71700644      0.00000000    0.00000000    0.00000000
    1    5.00939157   -2.84202191   -1.50236376     -0.55829412    2.94595240    0.52145710      0.00000000    0.00000000    0.00000000
    1    3.17756457   -2.62503291   -1.69161376     -1.21246525   10.40995479   -0.79130126      0.00000000    0.00000000    0.00000000
    8   -4.22393032    2.92046067   -2.75598810     -3.57662751   -5.06660813   -1.47533266      0.00000000    0.00000000    0.00000000
    1   -3.75388232    3.62917767   -3.28205010     -1.82129343   -0.58513215   -0.64891233      0.00000000    0.00000000    0.00000000
    1   -5.02209132    2.33368767   -2.89238110      6.61353735    6.30538871    1.04594841      0.00000000    0.00000000    0.00000000
    8   -3.33734633   -4.24077204   -0.72803112   9464.97284780-1516.50569016**************      0.00000000    0.00000000    0.00000000
    1   -3.92077533   -3.49161504   -1.04162512     -5.56237989   -1.97786851   13.56797579      0.00000000    0.00000000    0.00000000
    1   -2.56685633   -4.33708604   -0.09792412     -5.16915446   11.16628483   10.24877944      0.00000000    0.00000000    0.00000000
    8   -0.75543162    2.56300926   -3.31345691  -8185.05871869-2772.53855322-2818.06835419      0.00000000    0.00000000    0.00000000
    1   -0.01637262    1.90399326   -3.45294291     23.88464175   16.22093579    0.34655924      0.00000000    0.00000000    0.00000000
    1   -0.81934062    3.53424926   -3.08416591     16.43817782    1.41294645  -11.55410103      0.00000000    0.00000000    0.00000000
    8    6.90793232    0.97225586    1.33012245    197.14641675  300.77743019 -160.04828418      0.00000000    0.00000000    0.00000000
    1    6.36584132    1.81054086    1.38826645     -6.54736014    2.67458402   -5.55498997      0.00000000    0.00000000    0.00000000
    1    6.71414832   -0.00581314    1.25398945    -40.08710295  -11.95345098  -55.27893286      0.00000000    0.00000000    0.00000000
    8    1.49731614   -4.43507027    7.30672068     12.95587102    2.71763754  -21.95953534      0.00000000    0.00000000    0.00000000
    1    1.85819414   -5.22129027    6.80513168     -1.78139153   -0.64844969    3.17434503      0.00000000    0.00000000    0.00000000
    1    0.70743914   -4.25718027   -7.10640832     -1.98115067  -11.00529660    3.37634433      0.00000000    0.00000000    0.00000000
    8    0.60879224    5.52430107   -4.81068430  10969.82493029**************-1437.41496225      0.00000000    0.00000000    0.00000000
    1    0.04599424    6.35087007   -4.81367430   -206.97855798  166.87338754  141.71623231      0.00000000    0.00000000    0.00000000
    1    1.58766824    5.32054607   -4.82661630     10.41553430   -3.50845548   -3.14473870      0.00000000    0.00000000    0.00000000
    8    2.31100909   -0.17840943   -7.16731295     15.21018263  -40.73230411  -16.17769950      0.00000000    0.00000000    0.00000000
    1    2.74358909    0.00106257    6.94915405     -3.53622624   -7.45753453   -0.74525993      0.00000000    0.00000000    0.00000000
    1    1.41783809   -0.00041243   -6.75436095      5.27365386    1.72811172   -4.31070123      0.00000000    0.00000000    0.00000000
    8    6.82373759    1.52527162   -3.09637116      9.71775793   -2.55693406   -1.28965368      0.00000000    0.00000000    0.00000000
    1    6.63765059    2.50673062   -3.14193116     -2.19492769    2.00693068   -0.02090415      0.00000000    0.00000000    0.00000000
    1   -7.36132841    0.95027562   -3.02405916     -1.25610236    2.48252002    0.02025072      0.00000000    0.00000000    0.00000000
    8    3.25964322    0.05124804   -0.60518131  **************-5215.80540484**************      0.00000000    0.00000000    0.00000000
    1    2.41963922   -0.03265296   -0.06915831     31.74258225   55.03491239  -66.69460332      0.00000000    0.00000000    0.00000000
    1    4.16842522    0.44299004   -0.46158831      8.02449988  -23.94639044   60.39557904      0.00000000    0.00000000    0.00000000
    8    2.62697070    2.99179615    2.43872649     11.70551950  -12.85026925   27.86685284      0.00000000    0.00000000    0.00000000
    1    2.53585570    3.96248315    2.66105749     -5.12639975    1.20492268   -1.03020021      0.00000000    0.00000000    0.00000000
    1    2.30369270    2.13061715    2.83093649      1.04548561    3.39043510    1.03577837      0.00000000    0.00000000    0.00000000
    8   -2.16542045   -5.47740999   -2.77049977     28.09028754  -16.29598824  -15.76329879      0.00000000    0.00000000    0.00000000
    1   -3.11363245   -5.78522799   -2.84866377     -8.06369919    6.61465779    1.09895845      0.00000000    0.00000000    0.00000000
    1   -1.27865045   -5.91216499   -2.61367277     -8.02862779    5.29690704   -0.50382949      0.00000000    0.00000000    0.00000000
    8   -0.58925261   -1.21633165    0.74693529  -7857.56334208-5408.32702614 1920.87528278      0.00000000    0.00000000    0.00000000
    1   -1.43934861   -0.98933665    1.22209629      6.98131479    3.93370553   -2.33711614      0.00000000    0.00000000    0.00000000
    1   -0.02407861   -2.03361965    0.63474929    -10.16431181   16.06884937  -11.16495642      0.00000000    0.00000000    0.00000000
    8    1.61961107    2.99502913   -0.02039782  -2473.74864216-1627.69325621  -16.82668753      0.00000000    0.00000000    0.00000000
    1    2.58767207    2.74700713   -0.05658582     25.40988061   24.59348512    1.55261092      0.00000000    0.00000000    0.00000000
    1    1.09629107    3.84596513    0.02443918    -26.09741777   -1.25106137    4.02210816      0.00000000    0.00000000    0.00000000
    8   -5.39514819   -0.12478346    6.76931804    334.07823490 -189.34094019   -4.36605494      0.00000000    0.00000000    0.00000000
    1   -6.38587719    0.00215854    6.81734904     88.43342701   -2.33509011  149.98665558      0.00000000    0.00000000    0.00000000
    1   -4.77128319   -0.90500646    6.72446304     -2.99089760    2.33748932   -2.44588508      0.00000000    0.00000000    0.00000000
    8   -7.14333111    6.26482557   -0.00568243   3839.85293635 1648.33837594-1620.47628319      0.00000000    0.00000000    0.00000000
    1    7.09622689    5.61546357   -0.00087543    -46.51340415    1.73114761   59.75280533      0.00000000    0.00000000    0.00000000
    1   -7.04744511    7.26020057   -0.00668343     -5.40544643  -37.86368692  -23.09776027      0.00000000    0.00000000    0.00000000
    8    0.74802562   -0.28578817    0.43681956  -6381.2585421319784.11272321-5167.61194596      0.00000000    0.00000000    0.00000000
    1    0.15262462    0.51476683    0.50447856    -16.22795008  -20.70432016  -19.77960853      0.00000000    0.00000000    0.00000000
    1    1.71550962   -0.44834117    0.24312556    -88.13693135  -70.14630491   17.30882353      0.00000000    0.00000000    0.00000000
    8   -3.54172925    6.98696920   -5.22756645      2.82109445    0.14159449    5.42491739      0.00000000    0.00000000    0.00000000
    1   -2.86528325   -7.28287680   -5.13132545     -0.85794810   -2.01539278   -1.58282721      0.00000000    0.00000000    0.00000000
    1   -4.48311525    6.83435820   -4.92678545     -2.16056588   -0.23799186   -2.71504408      0.00000000    0.00000000    0.00000000
    8    2.27927985    2.05264620   -6.16483980      0.32637024   51.34770805   15.19138426      0.00000000    0.00000000    0.00000000
    1    2.94097385    1.86484720   -6.89069080     -3.12703932   -5.62605012    3.72054933      0.00000000    0.00000000    0.00000000
    1    1.35480485    1.74666420   -5.93748880      1.67927580    8.39548312    4.08708285      0.00000000    0.00000000    0.00000000
    8    4.10599042    3.86093389   -4.50422644      9.69719746  -11.25372940    6.33478199      0.00000000    0.00000000    0.00000000
    1    4.25279042    3.84472389   -5.49324244     -7.34439348    1.71036987    1.43511490      0.00000000    0.00000000    0.00000000
    1    4.04753742    3.17975289   -3.77447144     -6.21355202   -4.18496820   -3.44210947      0.00000000    0.00000000    0.00000000
    8    1.84167819    7.09251243    0.34696279      1.02071008  -10.91680436   15.70272651      0.00000000    0.00000000    0.00000000
    1    2.81358519    7.27658443    0.20039679     -7.00721441    7.86931522   -2.12876026      0.00000000    0.00000000    0.00000000
    1    0.99347719   -7.38076257    0.29144279      3.12084756    9.28345432   -0.19783528      0.00000000    0.00000000    0.00000000
    8   -5.20351082   -5.31730875   -4.56283802      9.26939211   -7.60245218    2.35652193      0.00000000    0.00000000    0.00000000
    1   -5.65417582   -5.90595075   -3.89174302     -6.62913127    4.56388983   -2.78564946      0.00000000    0.00000000    0.00000000
    1   -5.49889782   -4.66493475   -5.26077802     -1.22689854    2.04588531    1.36022789      0.00000000    0.00000000    0.00000000
    8   -4.84984275    0.70377010   -0.27337385  -7744.99078847 8166.98179669-1745.10757572      0.00000000    0.00000000    0.00000000
    1   -4.19948275   -0.00710690   -0.00569585    236.08089787 -110.38700201   24.41626091      0.00000000    0.00000000    0.00000000
    1   -5.78436175    0.95538710   -0.02171685      9.23077137   12.39245394    8.18011347      0.00000000    0.00000000    0.00000000
    8   -4.63753735   -1.95811970   -3.16512946      2.47485909    7.97732108    1.11740187      0.00000000    0.00000000    0.00000000
    1   -3.72659735   -2.30674570   -3.38561646      0.21846202   -3.10066410   -3.07955912      0.00000000    0.00000000    0.00000000
    1   -5.05021735   -1.05692070   -3.03283046      4.61289976   -3.99389212    0.59766937      0.00000000    0.00000000    0.00000000
    8    3.87519117   -4.88943429   -3.36550828     -6.71429413   -2.42672552    1.87775418      0.00000000    0.00000000    0.00000000
    1    3.13192617   -5.15982129   -2.75361428      0.12178375   -1.31120356   -1.16489961      0.00000000    0.00000000    0.00000000
    1    4.15620817   -4.04859929   -3.82810128      1.82058338    2.87251886    2.06321126      0.00000000    0.00000000    0.00000000
    8    0.60546193    0.13396046   -2.91733759    -62.04456943  297.13897076 -416.27254215      0.00000000    0.00000000    0.00000000
    1    0.54421193   -0.00639154   -1.92914859     67.49134085  -12.71930827   33.05622171      0.00000000    0.00000000    0.00000000
    1    0.00209793   -0.00572954   -3.70245159      8.45690429    3.99328196   -0.89740414      0.00000000    0.00000000    0.00000000
    8    4.74424384   -5.45048190    1.23971421    -15.23642831  -11.58108480   -9.59668267      0.00000000    0.00000000    0.00000000
    1    5.41190284   -5.18393490    0.54462321      5.53940004    3.82105608    4.71559597      0.00000000    0.00000000    0.00000000
    1    4.54444784   -6.27724190    1.76556121      3.84482236    2.69666777    2.34152900      0.00000000    0.00000000    0.00000000
    8   -0.41468115    6.73079770   -4.67898101  **************12806.03115199 1363.41658063      0.00000000    0.00000000    0.00000000
    1   -0.05943615    6.33401070   -5.52534201     13.87453833  -43.60729924  -76.84474043      0.00000000    0.00000000    0.00000000
    1   -0.02339815    7.06476270   -3.82146601     12.07207901   -2.60073019    9.55973975      0.00000000    0.00000000    0.00000000
    8   -4.94698480    4.00489744    3.01114909     11.72638942    2.78485511    9.11316491      0.00000000    0.00000000    0.00000000
    1   -4.88089380    5.00145144    2.96135709     -2.78951071   -1.66344224   -1.69122897      0.00000000    0.00000000    0.00000000
    1   -4.51915480    3.28185544    3.55349409     -4.74861786   -0.56050029   -1.09546509      0.00000000    0.00000000    0.00000000
    8   -3.41790818   -6.97833121    0.05005639   -182.60917374  176.36932815 -815.94100848      0.00000000    0.00000000    0.00000000
    1   -2.56210318   -7.03000121   -0.46462461      0.08984953    6.93296283    3.58313536      0.00000000    0.00000000    0.00000000
    1   -4.33721218   -7.36076321   -0.04263361    -10.61330188    5.30064836   -0.56510677      0.00000000    0.00000000    0.00000000
    8    3.03924571   -6.56092506   -6.06646985     -0.04138800    3.02330370   -6.96738009      0.00000000    0.00000000    0.00000000
    1    2.12815171   -6.97176106   -6.03344985      0.52424668   -0.04184709   -0.19574771      0.00000000    0.00000000    0.00000000
    1    3.41697571   -5.64007406   -5.96993685     -2.50078483    0.43253282    2.17222396      0.00000000    0.00000000    0.00000000
    8   -0.07749235   -5.67016843   -5.98986130     -8.29212700    2.02248910   12.60157353      0.00000000    0.00000000    0.00000000
    1   -0.69467835   -6.19021443   -6.58028530     -1.70857821   -3.49980991   -2.54507521      0.00000000    0.00000000    0.00000000
    1    0.01495865   -5.51307343   -5.00663230     -0.61412145   -1.90235290   -1.78284356      0.00000000    0.00000000    0.00000000
    8   -4.94522727    6.05358043   -2.33321198      2.18578757    9.53728063   -3.42643728      0.00000000    0.00000000    0.00000000
    1   -3.95530227    6.19292143   -2.30872698     -1.56370698   -4.44649184   -0.36878056      0.00000000    0.00000000    0.00000000
    1   -5.75444427    6.64105443   -2.33623098     -1.22784270   -3.64831301    2.63478922      0.00000000    0.00000000    0.00000000
    8   -6.56088057   -1.50781304   -5.86432116  -1320.70583611**************-2009.42946266      0.00000000    0.00000000    0.00000000
    1   -5.57234357   -1.54954404   -5.71934016     -5.62400102    7.86418774   -4.86667962      0.00000000    0.00000000    0.00000000
    1   -7.36933657   -1.40779404   -5.28435416     11.81965344   -0.44432095   -6.38840400      0.00000000    0.00000000    0.00000000
    8    2.50797149    7.18538213    4.57177858     10.88101813    5.96897171    2.56356721      0.00000000    0.00000000    0.00000000
    1    3.42624649   -7.41915887    4.59048258     -2.34634173   -0.54837640    0.84280257      0.00000000    0.00000000    0.00000000
    1    2.12236949    6.26303213    4.54835558     -4.59967094   -2.97172862    1.08065080      0.00000000    0.00000000    0.00000000
    8    3.94808505    0.35643437    4.13444720     -8.45661741   -0.34790216   -1.83018345      0.00000000    0.00000000    0.00000000
    1    4.87477705    0.06110737    3.90208620      6.86572423   11.88543325   19.05911962      0.00000000    0.00000000    0.00000000
    1    3.06252605   -0.08937763    4.26484420     -2.74591656   -6.20182196    0.64760120      0.00000000    0.00000000    0.00000000
    8   -2.18857138    4.14835619   -6.51090880     -2.09039648    6.17221359  -10.55297715      0.00000000    0.00000000    0.00000000
    1   -1.25138238    4.00838919   -6.83036480     -0.72044012   -4.83253938    6.39907643      0.00000000    0.00000000    0.00000000
    1   -2.62254938    4.42347719   -5.65303980      1.32877095    2.12299256    0.26033659      0.00000000    0.00000000    0.00000000
    8    0.00647797   -0.91737264    5.48586742  -6813.22439665 7019.34760434-1117.20312304      0.00000000    0.00000000    0.00000000
    1   -0.13967403    0.04336936    5.72162242    -26.48184284   82.85706462  -59.93349544      0.00000000    0.00000000    0.00000000
    1   -0.01913103   -1.78972864    5.97403442     -0.07904376  -28.86507494  -51.99357599      0.00000000    0.00000000    0.00000000
    8    2.68697125    5.45345615   -7.31209880     -5.84980567    0.25092547    6.26959626      0.00000000    0.00000000    0.00000000
    1    3.40951325    5.99695215    7.26068920     -0.05180856    0.30093758   -0.08470139      0.00000000    0.00000000    0.00000000
    1    2.36540025    4.50863415   -7.37430880      0.74662109   -1.84969191   -1.01352875      0.00000000    0.00000000    0.00000000
    8   -0.12663845    7.07525670    2.95182502  -1801.72705968**************-3708.55182932      0.00000000    0.00000000    0.00000000
    1   -0.69706245    7.37987170    3.71457902    -13.60262698   22.52650440    9.06807994      0.00000000    0.00000000    0.00000000
    1   -0.04195645    7.30203570    1.98158402    -11.70258456   11.34084031  -15.48545391      0.00000000    0.00000000    0.00000000
    8    0.74203489    3.07196386   -2.79019942   8163.29864128 2783.94972001 2845.96889065      0.00000000    0.00000000    0.00000000
    1    0.00842689    2.72478386   -2.20603142    -16.30678919   -9.78901185  -14.29378850      0.00000000    0.00000000    0.00000000
    1    1.52622789    3.68155386   -2.67439642      2.39803981   -4.52446545   -0.43519168      0.00000000    0.00000000    0.00000000
    8    3.12339692    4.01034845   -0.02224302  -2899.10587998-8033.59228627 7690.18668867      0.00000000    0.00000000    0.00000000
    1    3.83528092    4.71256645   -0.03109002    -10.75966753    8.52570668  -72.96223462      0.00000000    0.00000000    0.00000000
    1    2.12348792    3.99965045   -0.02809802      6.20200922  -37.59974566   -1.52060688      0.00000000    0.00000000    0.00000000
    8   -0.95748208   -4.97150193    0.97282450   -273.81249480    7.48845281  -92.59503217      0.00000000    0.00000000    0.00000000
    1   -1.11233508   -4.29589893    1.69362150      4.11910005   -9.84833807    7.16936725      0.00000000    0.00000000    0.00000000
    1   -0.97152608   -4.97259793   -0.02705950      1.74272428   -1.02647621    4.69448634      0.00000000    0.00000000    0.00000000
    8   -5.66686257   -6.65594262    2.75224039     -9.20327438   -2.91013797    5.96921182      0.00000000    0.00000000    0.00000000
    1   -6.21230857   -7.48989462    2.83577339      0.50592614   -0.25259534    0.25886318      0.00000000    0.00000000    0.00000000
    1   -5.84659357   -5.67274562    2.78368339      1.48931139   -0.12529880   -3.73861061      0.00000000    0.00000000    0.00000000
    8   -2.46302770    2.07816489   -0.34413667      2.11163692   32.40983168   21.47118973      0.00000000    0.00000000    0.00000000
    1   -2.36273570    1.62466689   -1.22971467     -3.72006887    2.79163194   -1.96307618      0.00000000    0.00000000    0.00000000
    1   -2.82439470    2.95266589   -0.02067367     -9.71234029   -0.63740471   -6.94490690      0.00000000    0.00000000    0.00000000
    8    5.71351561    7.36982474   -1.60355569     -1.87640737   -7.58744637   15.37174188      0.00000000    0.00000000    0.00000000
    1    6.38877761    7.34915774   -2.34082269     -0.88342173    4.82378527   -7.16377244      0.00000000    0.00000000    0.00000000
    1    5.27105461   -6.92226626   -1.05304769     -0.01568600    7.18810499   -5.94423140      0.00000000    0.00000000    0.00000000
    8    0.14993173    3.55039899    4.57719220      2.32222051   -4.31275784    7.75337613      0.00000000    0.00000000    0.00000000
    1   -0.00114027    4.52229999    4.39677020     -1.97318286    5.90493500   -6.06741594      0.00000000    0.00000000    0.00000000
    1   -0.03551827    2.69253799    4.09797420      0.51307203    1.02208950   -0.06717577      0.00000000    0.00000000    0.00000000
    8    5.40071371    2.27514251    6.48621731    -15.43866732   -1.13964291   12.37981224      0.00000000    0.00000000    0.00000000
    1    5.41715771    3.00843051    7.16591231      1.63093176    0.36282415   -4.66733264      0.00000000    0.00000000    0.00000000
    1    5.05776071    1.33655051    6.44887531      9.00760206    7.58377093   -7.69343297      0.00000000    0.00000000    0.00000000
    8   -1.85616559    4.85576827    1.41599746  -1130.79484221  296.12028779 -108.32309300      0.00000000    0.00000000    0.00000000
    1   -2.20731759    4.09786027    1.96575546      2.42165462   -0.90135018    3.48368651      0.00000000    0.00000000    0.00000000
    1   -1.04734459    5.02063427    0.85155646      3.48507518  -33.29566423   22.18773897      0.00000000    0.00000000    0.00000000
    8    1.08765612   -2.14516948    5.61940307   9881.95319494 4150.4262188419561.48140660      0.00000000    0.00000000    0.00000000
    1    0.76001612   -1.76313648    6.48350307     35.81596697   15.56161839    7.06760382      0.00000000    0.00000000    0.00000000
    1    0.95180412   -1.94829648    4.64844907    -22.75784814  -34.55661321  -20.44159792      0.00000000    0.00000000    0.00000000
    8   -6.14135627   -4.92202249   -0.44265485  13796.1948100014568.96713838-7116.04201975      0.00000000    0.00000000    0.00000000
    1   -7.07492527   -4.81014249   -0.10221785    -65.54415321   14.75252097 -111.88531598      0.00000000    0.00000000    0.00000000
    1   -5.71860627   -5.22957349   -1.29509985     -0.90512380    2.73679712    2.56577118      0.00000000    0.00000000    0.00000000
    8   -4.07346131   -4.12509113    0.65071514  -9426.35461206 1536.0411054017781.24324127      0.00000000    0.00000000    0.00000000
    1   -3.84826731   -3.72948813    1.54108114     -0.68298562   -8.86955694   -4.77989067      0.00000000    0.00000000    0.00000000
    1   -3.78201631   -4.92353113    0.12391414      4.61249436   11.99575997  -38.32937288      0.00000000    0.00000000    0.00000000
    8   -0.57746783   -4.39659489    4.77615742   -356.29936294 -325.85231137  125.02079000      0.00000000    0.00000000    0.00000000
    1   -1.49759683   -4.78488589    4.72557142      1.38058696    0.55672041   -4.68636836      0.00000000    0.00000000    0.00000000
    1    0.01807317   -3.87574689    4.16458942     21.57629035   35.55050602    9.09100640      0.00000000    0.00000000    0.00000000
    8    6.34879364    5.61909194    0.62922798  -3785.27379557-1647.12510036 1550.38258984      0.00000000    0.00000000    0.00000000
    1    6.21605764    6.39856094    0.01703798     -3.43944717   20.65731413  -12.15870454      0.00000000    0.00000000    0.00000000
    1    6.52382364    4.64058694    0.52032698     -2.29220682  -15.67216908   14.57187779      0.00000000    0.00000000    0.00000000
    8   -1.45109638    1.30569918   -5.81530862      5.86052435   14.35389031   -5.55706740      0.00000000    0.00000000    0.00000000
    1   -2.31100638    0.96373118   -5.43638862     -0.52975299    2.91473770    5.93934200      0.00000000    0.00000000    0.00000000
    1   -0.60868638    0.89905218   -6.16879262    -11.09884407   -1.14695853   -3.95766665      0.00000000    0.00000000    0.00000000
    8   -1.00145478    0.75755545    5.69496102  ************** -708.36786146-4782.84168711      0.00000000    0.00000000    0.00000000
    1   -1.39823378    1.63839745    5.43679302      6.92314225    5.40581017    6.17118283      0.00000000    0.00000000    0.00000000
    1   -1.26442178   -0.00379755    6.28754602    -26.30273668   -9.56812202   -3.39944581      0.00000000    0.00000000    0.00000000
    8    2.75492963   -2.63939900   -6.02453028      5.18707906   -4.57522623   16.26452773      0.00000000    0.00000000    0.00000000
    1    3.74741163   -2.61134600   -6.14352228     -4.06710655    2.34161128   -0.13221625      0.00000000    0.00000000    0.00000000
    1    2.12590363   -2.79205600   -5.26230428      4.64867278    0.54035386    0.40581481      0.00000000    0.00000000    0.00000000
    8    0.73023295   -1.30173115   -1.41023393    356.83205291 -351.05394262 -175.13023718      0.00000000    0.00000000    0.00000000
    1    0.00073595   -0.81587115   -1.89162793    -15.37626595  -33.67569526    6.18449871      0.00000000    0.00000000    0.00000000
    1    1.08969495   -1.31801415   -0.47723393    -11.82201495   19.87831012   33.89325190      0.00000000    0.00000000    0.00000000
    8    6.43151607   -3.98958125    2.98232535     13.12804744   -1.99153507    9.04497798      0.00000000    0.00000000    0.00000000
    1    6.64715007   -4.60170825    3.74309435     -3.82893049    2.38808721   -0.89264925      0.00000000    0.00000000    0.00000000
    1    5.68943407   -3.35924725    2.75437735     -1.87446360    0.04904164   -1.55023404      0.00000000    0.00000000    0.00000000
    8    1.44073279    7.41739108   -2.31868014    -16.73673236   13.93693241  -18.30136511      0.00000000    0.00000000    0.00000000
    1    1.81919579    6.49179308   -2.31966414      6.26692133   -7.10771878    2.44904001      0.00000000    0.00000000    0.00000000
    1    0.52550679   -7.17973092   -2.32292814      9.74110724   -1.64602884    7.54514596      0.00000000    0.00000000    0.00000000
    8    0.04229928   -6.38743320    3.27952987   1905.8884053117468.63818438 3749.12805849      0.00000000    0.00000000    0.00000000
    1    0.17539728   -7.34581320    3.02702587    -81.99185885 -205.64311269  -14.24756331      0.00000000    0.00000000    0.00000000
    1    0.35670228   -5.78696420    4.01475487     -4.76244160    3.34334444    2.76545029      0.00000000    0.00000000    0.00000000
    8   -5.79342471    3.39618615    0.32236358    -18.26167821   -8.02282547  -13.17484536      0.00000000    0.00000000    0.00000000